<PP_INFO>
Generated using Fritz-Haber code                                                
Author: unknown    Generation date: as well                                     
Info: automatically converted from FHI format                                   
    1        The Pseudo was generated with a Scalar-Relativistic Calculation
nl pn  l   occ               Rcut            Rcut US             E pseu
3s  0  0  2.00      0.00000000000      0.00000000000      0.00000000000
3p  0  1  2.00      0.00000000000      0.00000000000      0.00000000000
</PP_INFO>


<PP_HEADER>
   0                   Version Number
  Si                   Element
   NC                  Norm - Conserving pseudopotential
    F                  Nonlinear Core Correction
SLA  PZ   NOGX NOGC    PZ   Exchange-Correlation functional
    4.00000000000      Z valence
    0.00000000000      Total energy
  0.0000000  0.0000000 Suggested cutoff for wfc and rho
    1                  Max angular momentum component
  495                  Number of points in mesh
    2    1             Number of Wavefunctions, Number of Projectors
 Wavefunctions         nl  l   occ
                       3s  0  2.00
                       3p  1  2.00
</PP_HEADER>


<PP_MESH>
  <PP_R>
  4.46428571429E-04  4.57455357143E-04  4.68754504464E-04  4.80332740725E-04
  4.92196959420E-04  5.04354224318E-04  5.16811773659E-04  5.29577024468E-04
  5.42657576973E-04  5.56061219124E-04  5.69795931236E-04  5.83869890738E-04
  5.98291477039E-04  6.13069276522E-04  6.28212087652E-04  6.43728926217E-04
  6.59629030694E-04  6.75921867753E-04  6.92617137886E-04  7.09724781192E-04
  7.27254983287E-04  7.45218181374E-04  7.63625070454E-04  7.82486609695E-04
  8.01814028954E-04  8.21618835469E-04  8.41912820705E-04  8.62708067377E-04
  8.84016956641E-04  9.05852175470E-04  9.28226724204E-04  9.51153924292E-04
  9.74647426222E-04  9.98721217650E-04  1.02338963173E-03  1.04866735563E-03
  1.07456943931E-03  1.10111130446E-03  1.12830875368E-03  1.15617797990E-03
  1.18473557600E-03  1.21399854473E-03  1.24398430879E-03  1.27471072121E-03
  1.30619607603E-03  1.33845911911E-03  1.37151905935E-03  1.40539558011E-03
  1.44010885094E-03  1.47567953956E-03  1.51212882419E-03  1.54947840614E-03
  1.58775052278E-03  1.62696796069E-03  1.66715406932E-03  1.70833277483E-03
  1.75052859437E-03  1.79376665065E-03  1.83807268692E-03  1.88347308229E-03
  1.92999486742E-03  1.97766574064E-03  2.02651408444E-03  2.07656898232E-03
  2.12786023619E-03  2.18041838402E-03  2.23427471811E-03  2.28946130364E-03
  2.34601099784E-03  2.40395746949E-03  2.46333521899E-03  2.52417959890E-03
  2.58652683499E-03  2.65041404781E-03  2.71587927479E-03  2.78296149288E-03
  2.85170064176E-03  2.92213764761E-03  2.99431444750E-03  3.06827401436E-03
  3.14406038251E-03  3.22171867396E-03  3.30129512521E-03  3.38283711480E-03
  3.46639319153E-03  3.55201310336E-03  3.63974782702E-03  3.72964959835E-03
  3.82177194342E-03  3.91616971043E-03  4.01289910227E-03  4.11201771010E-03
  4.21358454754E-03  4.31766008586E-03  4.42430628999E-03  4.53358665535E-03
  4.64556624574E-03  4.76031173200E-03  4.87789143179E-03  4.99837535015E-03
  5.12183522130E-03  5.24834455127E-03  5.37797866168E-03  5.51081473463E-03
  5.64693185857E-03  5.78641107548E-03  5.92933542904E-03  6.07579001414E-03
  6.22586202749E-03  6.37964081957E-03  6.53721794781E-03  6.69868723112E-03
  6.86414480573E-03  7.03368918243E-03  7.20742130524E-03  7.38544461148E-03
  7.56786509338E-03  7.75479136119E-03  7.94633470781E-03  8.14260917509E-03
  8.34373162172E-03  8.54982179277E-03  8.76100239105E-03  8.97739915011E-03
  9.19914090912E-03  9.42635968958E-03  9.65919077391E-03  9.89777278602E-03
  1.01422477738E-02  1.03927612939E-02  1.06494624978E-02  1.09125042215E-02
  1.11820430758E-02  1.14582395397E-02  1.17412580564E-02  1.20312671304E-02
  1.23284394285E-02  1.26329518824E-02  1.29449857939E-02  1.32647269430E-02
  1.35923656985E-02  1.39280971312E-02  1.42721211304E-02  1.46246425223E-02
  1.49858711926E-02  1.53560222110E-02  1.57353159597E-02  1.61239782639E-02
  1.65222405270E-02  1.69303398680E-02  1.73485192627E-02  1.77770276885E-02
  1.82161202724E-02  1.86660584432E-02  1.91271100867E-02  1.95995497058E-02
  2.00836585836E-02  2.05797249506E-02  2.10880441569E-02  2.16089188475E-02
  2.21426591431E-02  2.26895828239E-02  2.32500155197E-02  2.38242909030E-02
  2.44127508883E-02  2.50157458352E-02  2.56336347574E-02  2.62667855359E-02
  2.69155751386E-02  2.75803898445E-02  2.82616254737E-02  2.89596876229E-02
  2.96749919072E-02  3.04079642073E-02  3.11590409232E-02  3.19286692340E-02
  3.27173073641E-02  3.35254248560E-02  3.43535028499E-02  3.52020343703E-02
  3.60715246193E-02  3.69624912774E-02  3.78754648119E-02  3.88109887928E-02
  3.97696202160E-02  4.07519298353E-02  4.17585025022E-02  4.27899375140E-02
  4.38468489706E-02  4.49298661402E-02  4.60396338339E-02  4.71768127896E-02
  4.83420800655E-02  4.95361294431E-02  5.07596718403E-02  5.20134357348E-02
  5.32981675974E-02  5.46146323371E-02  5.59636137558E-02  5.73459150156E-02
  5.87623591165E-02  6.02137893867E-02  6.17010699845E-02  6.32250864131E-02
  6.47867460475E-02  6.63869786749E-02  6.80267370482E-02  6.97069974533E-02
  7.14287602904E-02  7.31930506695E-02  7.50009190211E-02  7.68534417209E-02
  7.87517217314E-02  8.06968892582E-02  8.26901024228E-02  8.47325479527E-02
  8.68254418871E-02  8.89700303017E-02  9.11675900502E-02  9.34194295244E-02
  9.57268894337E-02  9.80913436027E-02  1.00514199790E-01  1.02996900524E-01
  1.05540923967E-01  1.08147784789E-01  1.10819035074E-01  1.13556265240E-01
  1.16361104991E-01  1.19235224285E-01  1.22180334325E-01  1.25198188582E-01
  1.28290583840E-01  1.31459361261E-01  1.34706407484E-01  1.38033655749E-01
  1.41443087046E-01  1.44936731296E-01  1.48516668559E-01  1.52185030273E-01
  1.55944000520E-01  1.59795817333E-01  1.63742774021E-01  1.67787220540E-01
  1.71931564887E-01  1.76178274540E-01  1.80529877921E-01  1.84988965906E-01
  1.89558193363E-01  1.94240280740E-01  1.99038015674E-01  2.03954254661E-01
  2.08991924751E-01  2.14154025292E-01  2.19443629717E-01  2.24863887371E-01
  2.30418025389E-01  2.36109350616E-01  2.41941251577E-01  2.47917200491E-01
  2.54040755343E-01  2.60315562000E-01  2.66745356381E-01  2.73333966684E-01
  2.80085315661E-01  2.87003422958E-01  2.94092407505E-01  3.01356489970E-01
  3.08799995272E-01  3.16427355155E-01  3.24243110828E-01  3.32251915665E-01
  3.40458537982E-01  3.48867863870E-01  3.57484900108E-01  3.66314777141E-01
  3.75362752136E-01  3.84634212114E-01  3.94134677153E-01  4.03869803679E-01
  4.13845387829E-01  4.24067368909E-01  4.34541832921E-01  4.45275016194E-01
  4.56273309094E-01  4.67543259829E-01  4.79091578346E-01  4.90925140332E-01
  5.03050991298E-01  5.15476350783E-01  5.28208616647E-01  5.41255369478E-01
  5.54624377104E-01  5.68323599219E-01  5.82361192120E-01  5.96745513565E-01
  6.11485127750E-01  6.26588810405E-01  6.42065554023E-01  6.57924573207E-01
  6.74175310165E-01  6.90827440326E-01  7.07890878102E-01  7.25375782791E-01
  7.43292564626E-01  7.61651890973E-01  7.80464692680E-01  7.99742170589E-01
  8.19495802202E-01  8.39737348517E-01  8.60478861025E-01  8.81732688892E-01
  9.03511486308E-01  9.25828220020E-01  9.48696177054E-01  9.72128972628E-01
  9.96140558251E-01  1.02074523004E+00  1.04595763722E+00  1.07179279086E+00
  1.09826607280E+00  1.12539324479E+00  1.15319045794E+00  1.18167426225E+00
  1.21086161653E+00  1.24076989846E+00  1.27141691495E+00  1.30282091275E+00
  1.33500058929E+00  1.36797510385E+00  1.40176408891E+00  1.43638766191E+00
  1.47186643716E+00  1.50822153816E+00  1.54547461015E+00  1.58364783302E+00
  1.62276393450E+00  1.66284620368E+00  1.70391850491E+00  1.74600529198E+00
  1.78913162269E+00  1.83332317377E+00  1.87860625616E+00  1.92500783069E+00
  1.97255552411E+00  2.02127764556E+00  2.07120320340E+00  2.12236192252E+00
  2.17478426201E+00  2.22850143328E+00  2.28354541869E+00  2.33994899053E+00
  2.39774573059E+00  2.45697005014E+00  2.51765721038E+00  2.57984334347E+00
  2.64356547406E+00  2.70886154127E+00  2.77577042134E+00  2.84433195074E+00
  2.91458694993E+00  2.98657724759E+00  3.06034570560E+00  3.13593624453E+00
  3.21339386977E+00  3.29276469836E+00  3.37409598641E+00  3.45743615727E+00
  3.54283483035E+00  3.63034285066E+00  3.72001231908E+00  3.81189662336E+00
  3.90605046995E+00  4.00252991656E+00  4.10139240550E+00  4.20269679792E+00
  4.30650340882E+00  4.41287404302E+00  4.52187203189E+00  4.63356227107E+00
  4.74801125917E+00  4.86528713727E+00  4.98545972956E+00  5.10860058488E+00
  5.23478301933E+00  5.36408215990E+00  5.49657498925E+00  5.63234039149E+00
  5.77145919916E+00  5.91401424138E+00  6.06009039314E+00  6.20977462585E+00
  6.36315605911E+00  6.52032601377E+00  6.68137806631E+00  6.84640810455E+00
  7.01551438473E+00  7.18879759003E+00  7.36636089051E+00  7.54831000450E+00
  7.73475326161E+00  7.92580166717E+00  8.12156896835E+00  8.32217172187E+00
  8.52772936340E+00  8.73836427868E+00  8.95420187636E+00  9.17537066271E+00
  9.40200231808E+00  9.63423177533E+00  9.87219730018E+00  1.01160405735E+01
  1.03659067757E+01  1.06219446730E+01  1.08843067064E+01  1.11531490821E+01
  1.14286318644E+01  1.17109190715E+01  1.20001787725E+01  1.22965831882E+01
  1.26003087930E+01  1.29115364202E+01  1.32304513697E+01  1.35572435186E+01
  1.38921074335E+01  1.42352424871E+01  1.45868529765E+01  1.49471482450E+01
  1.53163428067E+01  1.56946564740E+01  1.60823144889E+01  1.64795476568E+01
  1.68865924839E+01  1.73036913183E+01  1.77310924938E+01  1.81690504784E+01
  1.86178260252E+01  1.90776863281E+01  1.95489051804E+01  2.00317631383E+01
  2.05265476878E+01  2.10335534157E+01  2.15530821851E+01  2.20854433151E+01
  2.26309537650E+01  2.31899383230E+01  2.37627297995E+01  2.43496692256E+01
  2.49511060554E+01  2.55673983750E+01  2.61989131149E+01  2.68460262688E+01
  2.75091231177E+01  2.81885984587E+01  2.88848568406E+01  2.95983128046E+01
  3.03293911308E+01  3.10785270918E+01  3.18461667109E+01  3.26327670287E+01
  3.34387963743E+01  3.42647346447E+01  3.51110735905E+01  3.59783171082E+01
  3.68669815407E+01  3.77775959848E+01  3.87107026056E+01  3.96668569600E+01
  4.06466283269E+01  4.16506000465E+01  4.26793698677E+01  4.37335503034E+01
  4.48137689959E+01  4.59206690901E+01  4.70549096166E+01  4.82171658842E+01
  4.94081298815E+01  5.06285106896E+01  5.18790349036E+01  5.31604470657E+01
  5.44735101083E+01  5.58190058079E+01  5.71977352514E+01  5.86105193121E+01
  6.00581991391E+01  6.15416366578E+01  6.30617150833E+01  6.46193394459E+01
  6.62154371302E+01  6.78509584273E+01  6.95268771004E+01  7.12441909648E+01
  7.30039224816E+01  7.48071193669E+01  7.66548552153E+01
  </PP_R>
  <PP_RAB>
  1.08928066176E-05  1.11618589411E-05  1.14375568570E-05  1.17200645113E-05
  1.20095501047E-05  1.23061859923E-05  1.26101487863E-05  1.29216194614E-05
  1.32407834621E-05  1.35678308136E-05  1.39029562347E-05  1.42463592537E-05
  1.45982443272E-05  1.49588209621E-05  1.53283038399E-05  1.57069129447E-05
  1.60948736945E-05  1.64924170747E-05  1.68997797765E-05  1.73172043369E-05
  1.77449392841E-05  1.81832392844E-05  1.86323652947E-05  1.90925847175E-05
  1.95641715600E-05  2.00474065975E-05  2.05425775405E-05  2.10499792057E-05
  2.15699136921E-05  2.21026905603E-05  2.26486270172E-05  2.32080481045E-05
  2.37812868927E-05  2.43686846789E-05  2.49705911905E-05  2.55873647929E-05
  2.62193727033E-05  2.68669912090E-05  2.75306058919E-05  2.82106118574E-05
  2.89074139703E-05  2.96214270954E-05  3.03530763446E-05  3.11027973303E-05
  3.18710364244E-05  3.26582510241E-05  3.34649098244E-05  3.42914930970E-05
  3.51384929765E-05  3.60064137531E-05  3.68957721728E-05  3.78070977454E-05
  3.87409330597E-05  3.96978341063E-05  4.06783706088E-05  4.16831263628E-05
  4.27126995839E-05  4.37677032637E-05  4.48487655343E-05  4.59565300430E-05
  4.70916563350E-05  4.82548202465E-05  4.94467143066E-05  5.06680481500E-05
  5.19195489393E-05  5.32019617981E-05  5.45160502545E-05  5.58625966958E-05
  5.72424028342E-05  5.86562901842E-05  6.01051005517E-05  6.15896965353E-05
  6.31109620398E-05  6.46698028022E-05  6.62671469314E-05  6.79039454606E-05
  6.95811729134E-05  7.12998278844E-05  7.30609336332E-05  7.48655386939E-05
  7.67147174996E-05  7.86095710219E-05  8.05512274261E-05  8.25408427435E-05
  8.45796015593E-05  8.66687177178E-05  8.88094350454E-05  9.10030280911E-05
  9.32508028849E-05  9.55540977162E-05  9.79142839298E-05  1.00332766743E-04
  1.02810986081E-04  1.05350417438E-04  1.07952572748E-04  1.10619001295E-04
  1.13351290627E-04  1.16151067506E-04  1.19019998873E-04  1.21959792845E-04
  1.24972199728E-04  1.28059013062E-04  1.31222070684E-04  1.34463255830E-04
  1.37784498249E-04  1.41187775356E-04  1.44675113407E-04  1.48248588709E-04
  1.51910328850E-04  1.55662513972E-04  1.59507378067E-04  1.63447210306E-04
  1.67484356400E-04  1.71621220003E-04  1.75860264137E-04  1.80204012662E-04
  1.84655051774E-04  1.89216031553E-04  1.93889667532E-04  1.98678742320E-04
  2.03586107256E-04  2.08614684105E-04  2.13767466802E-04  2.19047523232E-04
  2.24457997056E-04  2.30002109584E-04  2.35683161690E-04  2.41504535784E-04
  2.47469697818E-04  2.53582199354E-04  2.59845679678E-04  2.66263867966E-04
  2.72840585505E-04  2.79579747967E-04  2.86485367742E-04  2.93561556325E-04
  3.00812526766E-04  3.08242596177E-04  3.15856188303E-04  3.23657836154E-04
  3.31652184707E-04  3.39843993669E-04  3.48238140313E-04  3.56839622378E-04
  3.65653561051E-04  3.74685204009E-04  3.83939928548E-04  3.93423244783E-04
  4.03140798929E-04  4.13098376663E-04  4.23301906567E-04  4.33757463659E-04
  4.44471273011E-04  4.55449713455E-04  4.66699321377E-04  4.78226794615E-04
  4.90038996442E-04  5.02142959654E-04  5.14545890757E-04  5.27255174259E-04
  5.40278377063E-04  5.53623252977E-04  5.67297747325E-04  5.81310001684E-04
  5.95668358726E-04  6.10381367186E-04  6.25457786956E-04  6.40906594294E-04
  6.56736987173E-04  6.72958390756E-04  6.89580463008E-04  7.06613100444E-04
  7.24066444025E-04  7.41950885192E-04  7.60277072057E-04  7.79055915736E-04
  7.98298596855E-04  8.18016572197E-04  8.38221581531E-04  8.58925654594E-04
  8.80141118263E-04  9.01880603884E-04  9.24157054800E-04  9.46983734053E-04
  9.70374232285E-04  9.94342475822E-04  1.01890273497E-03  1.04406963253E-03
  1.06985815245E-03  1.09628364882E-03  1.12336185494E-03  1.15110889276E-03
  1.17954128241E-03  1.20867595209E-03  1.23853024810E-03  1.26912194523E-03
  1.30046925728E-03  1.33259084793E-03  1.36550584188E-03  1.39923383617E-03
  1.43379491193E-03  1.46920964625E-03  1.50549912451E-03  1.54268495289E-03
  1.58078927122E-03  1.61983476622E-03  1.65984468495E-03  1.70084284867E-03
  1.74285366703E-03  1.78590215261E-03  1.83001393578E-03  1.87521527999E-03
  1.92153309740E-03  1.96899496491E-03  2.01762914054E-03  2.06746458032E-03
  2.11853095545E-03  2.17085867005E-03  2.22447887920E-03  2.27942350751E-03
  2.33572526815E-03  2.39341768227E-03  2.45253509903E-03  2.51311271597E-03
  2.57518660006E-03  2.63879370908E-03  2.70397191369E-03  2.77076001996E-03
  2.83919779245E-03  2.90932597793E-03  2.98118632958E-03  3.05482163192E-03
  3.13027572623E-03  3.20759353667E-03  3.28682109702E-03  3.36800557812E-03
  3.45119531590E-03  3.53643984020E-03  3.62378990426E-03  3.71329751489E-03
  3.80501596351E-03  3.89899985781E-03  3.99530515430E-03  4.09398919161E-03
  4.19511072464E-03  4.29872995954E-03  4.40490858954E-03  4.51370983170E-03
  4.62519846454E-03  4.73944086662E-03  4.85650505602E-03  4.97646073091E-03
  5.09937931096E-03  5.22533397994E-03  5.35439972925E-03  5.48665340256E-03
  5.62217374160E-03  5.76104143302E-03  5.90333915641E-03  6.04915163358E-03
  6.19856567893E-03  6.35167025120E-03  6.50855650640E-03  6.66931785211E-03
  6.83405000306E-03  7.00285103813E-03  7.17582145877E-03  7.35306424881E-03
  7.53468493575E-03  7.72079165366E-03  7.91149520751E-03  8.10690913913E-03
  8.30714979487E-03  8.51233639480E-03  8.72259110376E-03  8.93803910402E-03
  9.15880866989E-03  9.38503124403E-03  9.61684151576E-03  9.85437750120E-03
  1.00977806255E-02  1.03471958069E-02  1.06027715434E-02  1.08646600005E-02
  1.11330171025E-02  1.14080026249E-02  1.16897802898E-02  1.19785178629E-02
  1.22743872541E-02  1.25775646193E-02  1.28882304654E-02  1.32065697579E-02
  1.35327720309E-02  1.38670315001E-02  1.42095471781E-02  1.45605229934E-02
  1.49201679114E-02  1.52886960588E-02  1.56663268514E-02  1.60532851247E-02
  1.64498012672E-02  1.68561113586E-02  1.72724573091E-02  1.76990870046E-02
  1.81362544537E-02  1.85842199387E-02  1.90432501711E-02  1.95136184504E-02
  1.99956048261E-02  2.04894962653E-02  2.09955868231E-02  2.15141778176E-02
  2.20455780097E-02  2.25901037865E-02  2.31480793500E-02  2.37198369100E-02
  2.43057168817E-02  2.49060680886E-02  2.55212479704E-02  2.61516227953E-02
  2.67975678783E-02  2.74594678049E-02  2.81377166597E-02  2.88327182612E-02
  2.95448864023E-02  3.02746450964E-02  3.10224288303E-02  3.17886828224E-02
  3.25738632881E-02  3.33784377113E-02  3.42028851228E-02  3.50476963853E-02
  3.59133744860E-02  3.68004348359E-02  3.77094055763E-02  3.86408278940E-02
  3.95952563430E-02  4.05732591747E-02  4.15754186763E-02  4.26023315176E-02
  4.36546091061E-02  4.47328779510E-02  4.58377800364E-02  4.69699732033E-02
  4.81301315414E-02  4.93189457905E-02  5.05371237515E-02  5.17853907082E-02
  5.30644898587E-02  5.43751827582E-02  5.57182497723E-02  5.70944905417E-02
  5.85047244581E-02  5.99497911522E-02  6.14305509936E-02  6.29478856032E-02
  6.45026983776E-02  6.60959150275E-02  6.77284841287E-02  6.94013776867E-02
  7.11155917155E-02  7.28721468309E-02  7.46720888576E-02  7.65164894524E-02
  7.84064467419E-02  8.03430859764E-02  8.23275602000E-02  8.43610509370E-02
  8.64447688951E-02  8.85799546868E-02  9.07678795676E-02  9.30098461929E-02
  9.53071893939E-02  9.76612769719E-02  1.00073510513E-01  1.02545326223E-01
  1.05078195780E-01  1.07673627216E-01  1.10333165809E-01  1.13058395004E-01
  1.15850937361E-01  1.18712455513E-01  1.21644653165E-01  1.24649276098E-01
  1.27728113217E-01  1.30882997614E-01  1.34115807655E-01  1.37428468104E-01
  1.40822951266E-01  1.44301278162E-01  1.47865519733E-01  1.51517798070E-01
  1.55260287683E-01  1.59095216789E-01  1.63024868643E-01  1.67051582899E-01
  1.71177756996E-01  1.75405847594E-01  1.79738372030E-01  1.84177909819E-01
  1.88727104191E-01  1.93388663665E-01  1.98165363657E-01  2.03060048140E-01
  2.08075631329E-01  2.13215099423E-01  2.18481512378E-01  2.23878005734E-01
  2.29407792476E-01  2.35074164950E-01  2.40880496824E-01  2.46830245096E-01
  2.52926952149E-01  2.59174247868E-01  2.65575851790E-01  2.72135575329E-01
  2.78857324040E-01  2.85745099944E-01  2.92803003912E-01  3.00035238109E-01
  3.07446108490E-01  3.15040027370E-01  3.22821516046E-01  3.30795207492E-01
  3.38965849117E-01  3.47338305590E-01  3.55917561738E-01  3.64708725513E-01
  3.73717031034E-01  3.82947841700E-01  3.92406653390E-01  4.02099097729E-01
  4.12030945443E-01  4.22208109795E-01  4.32636650107E-01  4.43322775365E-01
  4.54272847916E-01  4.65493387260E-01  4.76991073925E-01  4.88772753451E-01
  5.00845440461E-01  5.13216322841E-01  5.25892766015E-01  5.38882317335E-01
  5.52192710574E-01  5.65831870525E-01  5.79807917727E-01  5.94129173295E-01
  6.08804163875E-01  6.23841626723E-01  6.39250514903E-01  6.55040002621E-01
  6.71219490686E-01  6.87798612106E-01  7.04787237825E-01  7.22195482599E-01
  7.40033711019E-01  7.58312543681E-01  7.77042863510E-01  7.96235822239E-01
  8.15902847048E-01  8.36055647370E-01  8.56706221860E-01  8.77866865540E-01
  8.99550177119E-01  9.21769066494E-01  9.44536762436E-01  9.67866820468E-01
  9.91773130934E-01  1.01626992727E+00  1.04137179447E+00  1.06709367779E+00
  1.09345089164E+00  1.12045912866E+00  1.14813446914E+00  1.17649339053E+00
  1.20555277727E+00  1.23532993087E+00  1.26584258016E+00  1.29710889189E+00
  1.32914748152E+00  1.36197742432E+00  1.39561826670E+00  1.43009003788E+00
  1.46541326182E+00  1.50160896939E+00  1.53869871093E+00  1.57670456909E+00
  1.61564917195E+00  1.65555570649E+00  1.69644793244E+00  1.73835019638E+00
  1.78128744623E+00  1.82528524615E+00  1.87036979173E+00
  </PP_RAB>
</PP_MESH>


<PP_LOCAL>
 -6.05688113075E+01 -6.05688115654E+01 -6.05688118235E+01 -6.05688120822E+01
 -6.05688123417E+01 -6.05688126024E+01 -6.05688128646E+01 -6.05688131288E+01
 -6.05688133952E+01 -6.05688136642E+01 -6.05688139363E+01 -6.05688142118E+01
 -6.05688144911E+01 -6.05688147747E+01 -6.05688150631E+01 -6.05688153566E+01
 -6.05688156558E+01 -6.05688159611E+01 -6.05688162731E+01 -6.05688165924E+01
 -6.05688169194E+01 -6.05688172549E+01 -6.05688175993E+01 -6.05688179533E+01
 -6.05688183176E+01 -6.05688186929E+01 -6.05688190798E+01 -6.05688194792E+01
 -6.05688198919E+01 -6.05688203186E+01 -6.05688207602E+01 -6.05688212177E+01
 -6.05688216918E+01 -6.05688221838E+01 -6.05688226944E+01 -6.05688232249E+01
 -6.05688237764E+01 -6.05688243500E+01 -6.05688249470E+01 -6.05688255686E+01
 -6.05688262163E+01 -6.05688268913E+01 -6.05688275953E+01 -6.05688283297E+01
 -6.05688290962E+01 -6.05688298965E+01 -6.05688307324E+01 -6.05688316057E+01
 -6.05688325184E+01 -6.05688334726E+01 -6.05688344704E+01 -6.05688355141E+01
 -6.05688366061E+01 -6.05688377487E+01 -6.05688389447E+01 -6.05688401968E+01
 -6.05688415077E+01 -6.05688428806E+01 -6.05688443185E+01 -6.05688458247E+01
 -6.05688474028E+01 -6.05688490563E+01 -6.05688507889E+01 -6.05688526048E+01
 -6.05688545080E+01 -6.05688565029E+01 -6.05688585941E+01 -6.05688607864E+01
 -6.05688630848E+01 -6.05688654945E+01 -6.05688680212E+01 -6.05688706705E+01
 -6.05688734486E+01 -6.05688763617E+01 -6.05688794166E+01 -6.05688826201E+01
 -6.05688859796E+01 -6.05688895026E+01 -6.05688931973E+01 -6.05688970718E+01
 -6.05689011350E+01 -6.05689053961E+01 -6.05689098645E+01 -6.05689145504E+01
 -6.05689194642E+01 -6.05689246168E+01 -6.05689300197E+01 -6.05689356848E+01
 -6.05689416248E+01 -6.05689478525E+01 -6.05689543817E+01 -6.05689612267E+01
 -6.05689684021E+01 -6.05689759237E+01 -6.05689838075E+01 -6.05689920704E+01
 -6.05690007300E+01 -6.05690098046E+01 -6.05690193132E+01 -6.05690292757E+01
 -6.05690397127E+01 -6.05690506456E+01 -6.05690620968E+01 -6.05690740893E+01
 -6.05690866472E+01 -6.05690997953E+01 -6.05691135594E+01 -6.05691279662E+01
 -6.05691430433E+01 -6.05691588191E+01 -6.05691753231E+01 -6.05691925856E+01
 -6.05692106378E+01 -6.05692295116E+01 -6.05692492401E+01 -6.05692698568E+01
 -6.05692913963E+01 -6.05693138937E+01 -6.05693373848E+01 -6.05693619059E+01
 -6.05693874936E+01 -6.05694141853E+01 -6.05694420180E+01 -6.05694710292E+01
 -6.05695012559E+01 -6.05695327349E+01 -6.05695655024E+01 -6.05695995936E+01
 -6.05696350424E+01 -6.05696718813E+01 -6.05697101407E+01 -6.05697498484E+01
 -6.05697910293E+01 -6.05698337046E+01 -6.05698778913E+01 -6.05699236013E+01
 -6.05699708403E+01 -6.05700196075E+01 -6.05700698939E+01 -6.05701216813E+01
 -6.05701749411E+01 -6.05702296324E+01 -6.05702857009E+01 -6.05703430763E+01
 -6.05704016708E+01 -6.05704613765E+01 -6.05705220629E+01 -6.05705835737E+01
 -6.05706457239E+01 -6.05707082963E+01 -6.05707710370E+01 -6.05708336517E+01
 -6.05708958001E+01 -6.05709570909E+01 -6.05710170755E+01 -6.05710752417E+01
 -6.05711310058E+01 -6.05711837045E+01 -6.05712325862E+01 -6.05712768002E+01
 -6.05713153863E+01 -6.05713472619E+01 -6.05713712086E+01 -6.05713858570E+01
 -6.05713896700E+01 -6.05713809243E+01 -6.05713576902E+01 -6.05713178087E+01
 -6.05712588668E+01 -6.05711781698E+01 -6.05710727112E+01 -6.05709391389E+01
 -6.05707737180E+01 -6.05705722902E+01 -6.05703302287E+01 -6.05700423880E+01
 -6.05697030493E+01 -6.05693058600E+01 -6.05688437666E+01 -6.05683089410E+01
 -6.05676926999E+01 -6.05669854144E+01 -6.05661764123E+01 -6.05652538689E+01
 -6.05642046873E+01 -6.05630143671E+01 -6.05616668586E+01 -6.05601444037E+01
 -6.05584273593E+01 -6.05564940045E+01 -6.05543203272E+01 -6.05518797900E+01
 -6.05491430725E+01 -6.05460777881E+01 -6.05426481729E+01 -6.05388147430E+01
 -6.05345339189E+01 -6.05297576126E+01 -6.05244327740E+01 -6.05185008928E+01
 -6.05118974530E+01 -6.05045513325E+01 -6.04963841468E+01 -6.04873095278E+01
 -6.04772323343E+01 -6.04660477868E+01 -6.04536405207E+01 -6.04398835491E+01
 -6.04246371288E+01 -6.04077475207E+01 -6.03890456341E+01 -6.03683455473E+01
 -6.03454428918E+01 -6.03201130907E+01 -6.02921094380E+01 -6.02611610071E+01
 -6.02269703740E+01 -6.01892111430E+01 -6.01475252575E+01 -6.01015200828E+01
 -6.00507652432E+01 -5.99947891985E+01 -5.99330755415E+01 -5.98650590005E+01
 -5.97901211302E+01 -5.97075856729E+01 -5.96167135766E+01 -5.95166976526E+01
 -5.94066568613E+01 -5.92856302152E+01 -5.91525702906E+01 -5.90063363444E+01
 -5.88456870379E+01 -5.86692727741E+01 -5.84756276648E+01 -5.82631611507E+01
 -5.80301493135E+01 -5.77747259270E+01 -5.74948733171E+01 -5.71884131156E+01
 -5.68529970171E+01 -5.64860976779E+01 -5.60849999236E+01 -5.56467924706E+01
 -5.51683604089E+01 -5.46463787410E+01 -5.40773073253E+01 -5.34573876337E+01
 -5.27826418022E+01 -5.20488745267E+01 -5.12516784394E+01 -5.03864436892E+01
 -4.94483725446E+01 -4.84324999342E+01 -4.73337209428E+01 -4.61468263782E+01
 -4.48665476172E+01 -4.34876120247E+01 -4.20048102990E+01 -4.04130771378E+01
 -3.87075866114E+01 -3.68838635740E+01 -3.49379123159E+01 -3.28662985714E+01
 -3.06664550086E+01 -2.83368400344E+01 -2.58770344970E+01 -2.32880200173E+01
 -2.05724142510E+01 -1.77347170861E+01 -1.47815622974E+01 -1.17219671872E+01
 -8.56757043232E+00 -5.33284573336E+00 -2.03527597504E+00  1.30453045339E+00
  4.66280261931E+00  8.01267363175E+00  1.13243775979E+01  1.45656051941E+01
  1.77020461484E+01  2.06981448823E+01  2.35180906240E+01  2.61270545871E+01
  2.84926733643E+01  3.05867585705E+01  3.23871871707E+01  3.38798943520E+01
  3.50608512460E+01  3.59378642229E+01  3.65319830932E+01  3.68782566042E+01
  3.70255318714E+01  3.70349697641E+01  3.69769540055E+01  3.69261241697E+01
  3.69543802635E+01  3.71219076421E+01  3.74665706755E+01  3.79924279076E+01
  3.86586195074E+01  3.93704311762E+01  3.99748695428E+01  4.02634639016E+01
  3.99850526466E+01  3.88707839039E+01  3.66722004263E+01  3.32108711794E+01
  2.84345068114E+01  2.24700844540E+01  1.56599106840E+01  8.56305125687E+00
  1.90389789882E+00 -3.54657156769E+00 -7.16301128569E+00 -8.72864242104E+00
 -8.76636652636E+00 -8.48522050601E+00 -8.21621432763E+00 -7.95898718894E+00
 -7.71316401849E+00 -7.47834951743E+00 -7.25412305184E+00 -7.04003552571E+00
 -6.83560910154E+00 -6.64034019521E+00 -6.45370562152E+00 -6.27517123204E+00
 -6.10420200054E+00 -5.94027236093E+00 -5.78287569863E+00 -5.63153217710E+00
 -5.48579444655E+00 -5.34525113439E+00 -5.20952829090E+00 -5.07828913347E+00
 -4.95123250379E+00 -4.82809044955E+00 -4.70862529247E+00 -4.59262647414E+00
 -4.47990739601E+00 -4.37030240195E+00 -4.26366399482E+00 -4.15986033446E+00
 -4.05877303196E+00 -3.96029523303E+00 -3.86432996937E+00 -3.77078874935E+00
 -3.67959035684E+00 -3.59065982800E+00 -3.50392757851E+00 -3.41932865847E+00
 -3.33680211605E+00 -3.25629045521E+00 -3.17773917550E+00 -3.10109638419E+00
 -3.02631247157E+00 -2.95333984146E+00 -2.88213268866E+00 -2.81264681599E+00
 -2.74483948409E+00 -2.67866928787E+00 -2.61409605460E+00 -2.55108075949E+00
 -2.48958545521E+00 -2.42957321262E+00 -2.37100807060E+00 -2.31385499297E+00
 -2.25807983113E+00 -2.20364929132E+00 -2.15053090542E+00 -2.09869300473E+00
 -2.04810469590E+00 -1.99873583884E+00 -1.95055702600E+00 -1.90353956291E+00
 -1.85765544971E+00 -1.81287736344E+00 -1.76917864114E+00 -1.72653326344E+00
 -1.68491583875E+00 -1.64430158796E+00 -1.60466632948E+00 -1.56598646476E+00
 -1.52823896422E+00 -1.49140135343E+00 -1.45545169975E+00 -1.42036859922E+00
 -1.38613116385E+00 -1.35271900913E+00 -1.32011224193E+00 -1.28829144862E+00
 -1.25723768354E+00 -1.22693245772E+00 -1.19735772784E+00 -1.16849588552E+00
 -1.14032974681E+00 -1.11284254201E+00 -1.08601790561E+00 -1.05983986662E+00
 -1.03429283901E+00 -1.00936161245E+00 -9.85031343262E-01 -9.61287545578E-01
 -9.38116082702E-01 -9.15503158706E-01 -8.93435310213E-01 -8.71899398380E-01
 -8.50882601075E-01 -8.30372405244E-01 -8.10356599459E-01 -7.90823266647E-01
 -7.71760776995E-01 -7.53157781027E-01 -7.35003202840E-01 -7.17286233517E-01
 -6.99996324686E-01 -6.83123182241E-01 -6.66656760210E-01 -6.50587254779E-01
 -6.34905098449E-01 -6.19600954342E-01 -6.04665710641E-01 -5.90090475164E-01
 -5.75866570072E-01 -5.61985526700E-01 -5.48439080515E-01 -5.35219166196E-01
 -5.22317912832E-01 -5.09727639235E-01 -4.97440849367E-01 -4.85450227879E-01
 -4.73748635753E-01 -4.62329106052E-01 -4.51184839775E-01 -4.40309201805E-01
 -4.29695716961E-01 -4.19338066145E-01 -4.09230082574E-01 -3.99365748114E-01
 -3.89739189697E-01 -3.80344675818E-01 -3.71176613132E-01 -3.62229543115E-01
 -3.53498138823E-01 -3.44977201712E-01 -3.36661658548E-01 -3.28546558386E-01
 -3.20627069623E-01 -3.12898477116E-01 -3.05356179383E-01 -2.97995685856E-01
 -2.90812614215E-01 -2.83802687768E-01 -2.76961732918E-01 -2.70285676665E-01
 -2.63770544193E-01 -2.57412456493E-01 -2.51207628060E-01 -2.45152364638E-01
 -2.39243061018E-01 -2.33476198896E-01 -2.27848344773E-01 -2.22356147914E-01
 -2.16996338353E-01 -2.11765724943E-01 -2.06661193463E-01 -2.01679704753E-01
 -1.96818292917E-01 -1.92074063547E-01 -1.87444192003E-01 -1.82925921736E-01
 -1.78516562639E-01 -1.74213489449E-01 -1.70014140186E-01 -1.65916014625E-01
 -1.61916672807E-01 -1.58013733587E-01 -1.54204873218E-01 -1.50487823966E-01
 -1.46860372759E-01 -1.43320359870E-01 -1.39865677633E-01 -1.36494269184E-01
 -1.33204127241E-01 -1.29993292906E-01 -1.26859854500E-01 -1.23801946424E-01
 -1.20817748047E-01 -1.17905482626E-01 -1.15063416245E-01 -1.12289856782E-01
 -1.09583152905E-01 -1.06941693086E-01 -1.04363904642E-01
</PP_LOCAL>


<PP_NONLOCAL>
  <PP_BETA>
    1    1             Beta    L
   412