
     Program PWSCF v.6.1 starts on 20Feb2017 at 12:34:13 

     This program is part of the open-source Quantum ESPRESSO suite
     for quantum simulation of materials; please cite
         "P. Giannozzi et al., J. Phys.:Condens. Matter 21 395502 (2009);
          URL http://www.quantum-espresso.org", 
     in publications or presentations arising from this work. More details at
     http://www.quantum-espresso.org/quote

     Parallel version (MPI), running on     1 processors
     Waiting for input...
     Reading input from standard input
     Message from routine read_cards :
     DEPRECATED: no units specified in ATOMIC_POSITIONS card
     Message from routine read_cards :
     ATOMIC_POSITIONS: units set to alat

     Current dimensions of program PWSCF are:
     Max number of different atomic species (ntypx) = 10
     Max number of k-points (npk) =  40000
     Max angular momentum in pseudopotentials (lmaxx) =  3

     Subspace diagonalization in iterative solution of the eigenvalue problem:
     a serial algorithm will be used


     G-vector sticks info
     --------------------
     sticks:   dense  smooth     PW     G-vecs:    dense   smooth      PW
     Sum         235     235     85                 2277     2277     459



     bravais-lattice index     =            2
     lattice parameter (alat)  =      10.2600  a.u.
     unit-cell volume          =     270.0114 (a.u.)^3
     number of atoms/cell      =            2
     number of atomic types    =            1
     number of electrons       =         8.00
     number of Kohn-Sham states=            4
     kinetic-energy cutoff     =      16.0000  Ry
     charge density cutoff     =      64.0000  Ry
     convergence threshold     =      1.0E-08
     mixing beta               =       0.7000
     number of iterations used =            8  plain     mixing
     Exchange-correlation      =  SLA  PZ   NOGX NOGC ( 1  1  0  0 0 0)

     celldm(1)=  10.260000  celldm(2)=   0.000000  celldm(3)=   0.000000
     celldm(4)=   0.000000  celldm(5)=   0.000000  celldm(6)=   0.000000

     crystal axes: (cart. coord. in units of alat)
               a(1) = (  -0.500000   0.000000   0.500000 )  
               a(2) = (   0.000000   0.500000   0.500000 )  
               a(3) = (  -0.500000   0.500000   0.000000 )  

     reciprocal axes: (cart. coord. in units 2 pi/alat)
               b(1) = ( -1.000000 -1.000000  1.000000 )  
               b(2) = (  1.000000  1.000000  1.000000 )  
               b(3) = ( -1.000000  1.000000 -1.000000 )  


     PseudoPot. # 1 for Si read from file:
     /home/schlipf/code/devel/q-e-private/SGW/test-suite/../..//pseudo/Si.pz-vbc.UPF
     MD5 check sum: 6dfa03ddd5817404712e03e4d12deb78
     Pseudo is Norm-conserving, Zval =  4.0
     Generated by new atomic code, or converted to UPF format
     Using radial grid of  431 points,  2 beta functions with: 
                l(1) =   0
                l(2) =   1

     atomic species   valence    mass     pseudopotential
        Si             4.00    28.08600     Si( 1.00)

     12 Sym. Ops., with inversion, found



   Cartesian axes

     site n.     atom                  positions (alat units)
         1           Si  tau(   1) = (  -0.1250000  -0.1250000  -0.1250000  )
         2           Si  tau(   2) = (   0.1250000   0.1250000   0.1250000  )

     number of k points=     4
                       cart. coord. in units 2pi/alat
        k(    1) = (   0.0000000   0.0000000   0.0000000), wk =   0.2500000
        k(    2) = (   0.5000000  -0.5000000   0.5000000), wk =   0.7500000
        k(    3) = (   0.0000000  -1.0000000   0.0000000), wk =   0.7500000
        k(    4) = (   0.5000000   0.5000000   0.5000000), wk =   0.2500000

     Dense  grid:     2277 G-vectors     FFT dimensions: (  20,  20,  20)

     Estimated max dynamical RAM per process >       1.67MB

     Initial potential from superposition of free atoms

     starting charge    7.99901, renormalised to    8.00000
     Starting wfc are    8 randomized atomic wfcs

     total cpu time spent up to now is        0.0 secs

     per-process dynamical memory:     5.1 Mb

     Self-consistent Calculation

     iteration #  1     ecut=    16.00 Ry     beta=0.70
     Davidson diagonalization with overlap
     ethr =  1.00E-02,  avg # of iterations =  2.0

     total cpu time spent up to now is        0.0 secs

     total energy              =     -15.64107255 Ry
     Harris-Foulkes estimate   =     -15.68231600 Ry
     estimated scf accuracy    <       0.11133839 Ry

     iteration #  2     ecut=    16.00 Ry     beta=0.70
     Davidson diagonalization with overlap
     ethr =  1.39E-03,  avg # of iterations =  1.2

     total cpu time spent up to now is        0.1 secs

     total energy              =     -15.64818208 Ry
     Harris-Foulkes estimate   =     -15.64874547 Ry
     estimated scf accuracy    <       0.00390177 Ry

     iteration #  3     ecut=    16.00 Ry     beta=0.70
     Davidson diagonalization with overlap
     ethr =  4.88E-05,  avg # of iterations =  1.8

     total cpu time spent up to now is        0.1 secs

     total energy              =     -15.64862012 Ry
     Harris-Foulkes estimate   =     -15.64864025 Ry
     estimated scf accuracy    <       0.00009203 Ry

     iteration #  4     ecut=    16.00 Ry     beta=0.70
     Davidson diagonalization with overlap
     ethr =  1.15E-06,  avg # of iterations =  2.2

     total cpu time spent up to now is        0.1 secs

     total energy              =     -15.64864267 Ry
     Harris-Foulkes estimate   =     -15.64864373 Ry
     estimated scf accuracy    <       0.00000250 Ry

     iteration #  5     ecut=    16.00 Ry     beta=0.70
     Davidson diagonalization with overlap
     ethr =  3.13E-08,  avg # of iterations =  2.5

     total cpu time spent up to now is        0.1 secs

     total energy              =     -15.64864342 Ry
     Harris-Foulkes estimate   =     -15.64864341 Ry
     estimated scf accuracy    <       0.00000004 Ry

     iteration #  6     ecut=    16.00 Ry     beta=0.70
     Davidson diagonalization with overlap
     ethr =  5.29E-10,  avg # of iterations =  3.5

     total cpu time spent up to now is        0.1 secs

     End of self-consistent calculation

          k = 0.0000 0.0000 0.0000 (   283 PWs)   bands (ev):

    -5.6518   6.3681   6.3681   6.3681

          k = 0.5000-0.5000 0.5000 (   272 PWs)   bands (ev):

    -3.2597  -0.7185   5.1303   5.1303

          k = 0.0000-1.0000 0.0000 (   302 PWs)   bands (ev):

    -1.4690  -1.4690   3.4155   3.4155

          k = 0.5000 0.5000 0.5000 (   272 PWs)   bands (ev):

    -3.2597  -0.7185   5.1303   5.1303

     highest occupied level (ev):     6.3681

!    total energy              =     -15.64864343 Ry
     Harris-Foulkes estimate   =     -15.64864343 Ry
     estimated scf accuracy    <          1.6E-09 Ry

     The total energy is the sum of the following terms:

     one-electron contribution =       4.76337765 Ry
     hartree contribution      =       1.24888590 Ry
     xc contribution           =      -4.85997741 Ry
     ewald contribution        =     -16.80092958 Ry

     convergence has been achieved in   6 iterations

     Writing output data file si.save

     init_run     :      0.03s CPU      0.03s WALL (       1 calls)
     electrons    :      0.06s CPU      0.05s WALL (       1 calls)

     Called by init_run:
     wfcinit      :      0.00s CPU      0.01s WALL (       1 calls)
     potinit      :      0.00s CPU      0.00s WALL (       1 calls)

     Called by electrons:
     c_bands      :      0.03s CPU      0.04s WALL (       6 calls)
     sum_band     :      0.01s CPU      0.01s WALL (       6 calls)
     v_of_rho     :      0.01s CPU      0.01s WALL (       7 calls)
     mix_rho      :      0.00s CPU      0.00s WALL (       6 calls)

     Called by c_bands:
     init_us_2    :      0.01s CPU      0.00s WALL (      52 calls)
     cegterg      :      0.03s CPU      0.04s WALL (      24 calls)

     Called by sum_band:

     Called by *egterg:
     h_psi        :      0.03s CPU      0.03s WALL (      81 calls)
     g_psi        :      0.00s CPU      0.00s WALL (      53 calls)
     cdiaghg      :      0.00s CPU      0.01s WALL (      77 calls)

     Called by h_psi:
     h_psi:pot    :      0.02s CPU      0.03s WALL (      81 calls)
     h_psi:calbec :      0.00s CPU      0.00s WALL (      81 calls)
     vloc_psi     :      0.02s CPU      0.03s WALL (      81 calls)
     add_vuspsi   :      0.00s CPU      0.00s WALL (      81 calls)

     General routines
     calbec       :      0.00s CPU      0.00s WALL (      81 calls)
     fft          :      0.00s CPU      0.00s WALL (      27 calls)
     fftw         :      0.02s CPU      0.02s WALL (     692 calls)

     Parallel routines
     fft_scatter  :      0.00s CPU      0.00s WALL (     719 calls)

     PWSCF        :     0.13s CPU         0.11s WALL


   This run was terminated on:  12:34:13  20Feb2017            

=------------------------------------------------------------------------------=
   JOB DONE.
=------------------------------------------------------------------------------=
