
     Program PWSCF v.6.0 starts on  7Dec2016 at 14:29:17 

     This program is part of the open-source Quantum ESPRESSO suite
     for quantum simulation of materials; please cite
         "P. Giannozzi et al., J. Phys.:Condens. Matter 21 395502 (2009);
          URL http://www.quantum-espresso.org", 
     in publications or presentations arising from this work. More details at
     http://www.quantum-espresso.org/quote

     Parallel version (MPI), running on     1 processors
     Waiting for input...
     Reading input from standard input

     Current dimensions of program PWSCF are:
     Max number of different atomic species (ntypx) = 10
     Max number of k-points (npk) =  40000
     Max angular momentum in pseudopotentials (lmaxx) =  3

     Subspace diagonalization in iterative solution of the eigenvalue problem:
     a serial algorithm will be used


     G-vector sticks info
     --------------------
     sticks:   dense  smooth     PW     G-vecs:    dense   smooth      PW
     Sum         187     187     61                 7349     7349    1415



     bravais-lattice index     =            0
     lattice parameter (alat)  =       4.7478  a.u.
     unit-cell volume          =     332.0145 (a.u.)^3
     number of atoms/cell      =            2
     number of atomic types    =            2
     number of electrons       =         8.00
     number of Kohn-Sham states=            4
     kinetic-energy cutoff     =      30.0000  Ry
     charge density cutoff     =     120.0000  Ry
     convergence threshold     =      1.0E-08
     mixing beta               =       0.7000
     number of iterations used =            8  plain     mixing
     Exchange-correlation      = SLA-PW-PBX-PBC ( 1  4  3  4 0 0)

     celldm(1)=   4.747801  celldm(2)=   0.000000  celldm(3)=   0.000000
     celldm(4)=   0.000000  celldm(5)=   0.000000  celldm(6)=   0.000000

     crystal axes: (cart. coord. in units of alat)
               a(1) = (   1.000000   0.000000   0.000000 )  
               a(2) = (  -0.500000   0.866026   0.000000 )  
               a(3) = (   0.000000   0.000000   3.582192 )  

     reciprocal axes: (cart. coord. in units 2 pi/alat)
               b(1) = (  1.000000  0.577350 -0.000000 )  
               b(2) = (  0.000000  1.154700  0.000000 )  
               b(3) = (  0.000000 -0.000000  0.279159 )  


     PseudoPot. # 1 for  B read from file:
     /home/schlipf/code/devel/q-e-private/test-suite/..//pseudo/B.pbe-hgh.UPF
     MD5 check sum: 3385d38bc98507d33570ec04ec2e9602
     Pseudo is Norm-conserving, Zval =  3.0
     Generated in analytical, separable form
     Using radial grid of 1059 points,  1 beta functions with: 
                l(1) =   0

     PseudoPot. # 2 for  N read from file:
     /home/schlipf/code/devel/q-e-private/test-suite/..//pseudo/N.pbe-hgh.UPF
     MD5 check sum: 695ccefae7e0355e838e6008dc02122a
     Pseudo is Norm-conserving, Zval =  5.0
     Generated in analytical, separable form
     Using radial grid of 1085 points,  1 beta functions with: 
                l(1) =   0

     atomic species   valence    mass     pseudopotential
        B              3.00    10.81100      B( 1.00)
        N              5.00    14.00670      N( 1.00)

     12 Sym. Ops. (no inversion) found



   Cartesian axes

     site n.     atom                  positions (alat units)
         1           B   tau(   1) = (  -0.0000005   0.5773507   0.0000000  )
         2           N   tau(   2) = (   0.5000005   0.2886749   0.0000000  )

     number of k points=     5
                       cart. coord. in units 2pi/alat
        k(    1) = (   0.0000000   0.0000000   0.0000000), wk =   0.0800000
        k(    2) = (   0.0000000   0.2309401   0.0000000), wk =   0.4800000
        k(    3) = (   0.0000000   0.4618801   0.0000000), wk =   0.4800000
        k(    4) = (   0.2000000   0.3464101   0.0000000), wk =   0.4800000
        k(    5) = (   0.2000000   0.5773501   0.0000000), wk =   0.4800000

     Dense  grid:     7349 G-vectors     FFT dimensions: (  18,  18,  60)

     Estimated max dynamical RAM per process >       4.99Mb

     Initial potential from superposition of free atoms
     Check: negative starting charge=   -0.006795

     starting charge    7.99971, renormalised to    8.00000

     negative rho (up, down):  6.795E-03 0.000E+00
     Starting wfc are    8 randomized atomic wfcs

     total cpu time spent up to now is        0.3 secs

     per-process dynamical memory:     8.1 Mb

     Self-consistent Calculation

     iteration #  1     ecut=    30.00 Ry     beta=0.70
     Davidson diagonalization with overlap
     ethr =  1.00E-02,  avg # of iterations =  2.0

     negative rho (up, down):  1.845E-03 0.000E+00

     total cpu time spent up to now is        0.3 secs

     total energy              =     -24.90182980 Ry
     Harris-Foulkes estimate   =     -24.95815334 Ry
     estimated scf accuracy    <       0.14437183 Ry

     iteration #  2     ecut=    30.00 Ry     beta=0.70
     Davidson diagonalization with overlap
     ethr =  1.80E-03,  avg # of iterations =  2.0

     negative rho (up, down):  3.183E-04 0.000E+00

     total cpu time spent up to now is        0.4 secs

     total energy              =     -24.91696273 Ry
     Harris-Foulkes estimate   =     -24.91894375 Ry
     estimated scf accuracy    <       0.00807982 Ry

     iteration #  3     ecut=    30.00 Ry     beta=0.70
     Davidson diagonalization with overlap
     ethr =  1.01E-04,  avg # of iterations =  2.2

     negative rho (up, down):  1.347E-05 0.000E+00

     total cpu time spent up to now is        0.5 secs

     total energy              =     -24.91804912 Ry
     Harris-Foulkes estimate   =     -24.91828588 Ry
     estimated scf accuracy    <       0.00087897 Ry

     iteration #  4     ecut=    30.00 Ry     beta=0.70
     Davidson diagonalization with overlap
     ethr =  1.10E-05,  avg # of iterations =  2.0

     total cpu time spent up to now is        0.5 secs

     total energy              =     -24.91820534 Ry
     Harris-Foulkes estimate   =     -24.91820773 Ry
     estimated scf accuracy    <       0.00002712 Ry

     iteration #  5     ecut=    30.00 Ry     beta=0.70
     Davidson diagonalization with overlap
     ethr =  3.39E-07,  avg # of iterations =  3.2

     total cpu time spent up to now is        0.6 secs

     total energy              =     -24.91821150 Ry
     Harris-Foulkes estimate   =     -24.91821654 Ry
     estimated scf accuracy    <       0.00000901 Ry

     iteration #  6     ecut=    30.00 Ry     beta=0.70
     Davidson diagonalization with overlap
     ethr =  1.13E-07,  avg # of iterations =  2.0

     total cpu time spent up to now is        0.6 secs

     total energy              =     -24.91821314 Ry
     Harris-Foulkes estimate   =     -24.91821314 Ry
     estimated scf accuracy    <       0.00000005 Ry

     iteration #  7     ecut=    30.00 Ry     beta=0.70
     Davidson diagonalization with overlap
     ethr =  5.84E-10,  avg # of iterations =  3.0

     total cpu time spent up to now is        0.7 secs

     End of self-consistent calculation

          k = 0.0000 0.0000 0.0000 (   899 PWs)   bands (ev):

   -19.8098  -7.1095  -2.7827  -2.7826

          k = 0.0000 0.2309 0.0000 (   909 PWs)   bands (ev):

   -19.0744  -6.0639  -5.7595  -4.1232

          k = 0.0000 0.4619 0.0000 (   929 PWs)   bands (ev):

   -17.2821 -10.0266  -5.6682  -3.4263

          k = 0.2000 0.3464 0.0000 (   926 PWs)   bands (ev):

   -17.7598  -8.4014  -6.5289  -4.1782

          k = 0.2000 0.5774 0.0000 (   924 PWs)   bands (ev):

   -16.4430 -10.4048  -7.7743  -2.0506

     highest occupied level (ev):    -2.0506

!    total energy              =     -24.91821318 Ry
     Harris-Foulkes estimate   =     -24.91821319 Ry
     estimated scf accuracy    <          8.3E-09 Ry

     The total energy is the sum of the following terms:

     one-electron contribution =     -76.42047529 Ry
     hartree contribution      =      40.25864714 Ry
     xc contribution           =      -7.22776919 Ry
     ewald contribution        =      18.47138415 Ry

     convergence has been achieved in   7 iterations

     Writing output data file bn.save

     init_run     :      0.26s CPU      0.22s WALL (       1 calls)
     electrons    :      0.55s CPU      0.40s WALL (       1 calls)

     Called by init_run:
     wfcinit      :      0.06s CPU      0.06s WALL (       1 calls)
     potinit      :      0.06s CPU      0.05s WALL (       1 calls)

     Called by electrons:
     c_bands      :      0.36s CPU      0.26s WALL (       7 calls)
     sum_band     :      0.07s CPU      0.05s WALL (       7 calls)
     v_of_rho     :      0.14s CPU      0.08s WALL (       8 calls)
     mix_rho      :      0.01s CPU      0.01s WALL (       7 calls)

     Called by c_bands:
     init_us_2    :      0.01s CPU      0.00s WALL (      75 calls)
     cegterg      :      0.36s CPU      0.25s WALL (      35 calls)

     Called by sum_band:

     Called by *egterg:
     h_psi        :      0.37s CPU      0.26s WALL (     122 calls)
     g_psi        :      0.00s CPU      0.00s WALL (      82 calls)
     cdiaghg      :      0.01s CPU      0.01s WALL (     117 calls)

     Called by h_psi:
     h_psi:pot    :      0.37s CPU      0.26s WALL (     122 calls)
     h_psi:calbec :      0.01s CPU      0.02s WALL (     122 calls)
     vloc_psi     :      0.35s CPU      0.25s WALL (     122 calls)
     add_vuspsi   :      0.00s CPU      0.00s WALL (     122 calls)

     General routines
     calbec       :      0.01s CPU      0.01s WALL (     122 calls)
     fft          :      0.05s CPU      0.03s WALL (      87 calls)
     fftw         :      0.36s CPU      0.26s WALL (    1042 calls)

     Parallel routines
     fft_scatter  :      0.02s CPU      0.02s WALL (    1129 calls)

     PWSCF        :     0.89s CPU         0.73s WALL


   This run was terminated on:  14:29:18   7Dec2016            

=------------------------------------------------------------------------------=
   JOB DONE.
=------------------------------------------------------------------------------=
