
     Program PWSCF v.6.1 starts on 20Feb2017 at 12:33: 9 

     This program is part of the open-source Quantum ESPRESSO suite
     for quantum simulation of materials; please cite
         "P. Giannozzi et al., J. Phys.:Condens. Matter 21 395502 (2009);
          URL http://www.quantum-espresso.org", 
     in publications or presentations arising from this work. More details at
     http://www.quantum-espresso.org/quote

     Parallel version (MPI), running on     1 processors
     Waiting for input...
     Reading input from standard input

     Current dimensions of program PWSCF are:
     Max number of different atomic species (ntypx) = 10
     Max number of k-points (npk) =  40000
     Max angular momentum in pseudopotentials (lmaxx) =  3

     Subspace diagonalization in iterative solution of the eigenvalue problem:
     a serial algorithm will be used


     G-vector sticks info
     --------------------
     sticks:   dense  smooth     PW     G-vecs:    dense   smooth      PW
     Sum         349     349    109                 4285     4285     749



     bravais-lattice index     =            2
     lattice parameter (alat)  =       9.6930  a.u.
     unit-cell volume          =     227.6746 (a.u.)^3
     number of atoms/cell      =            2
     number of atomic types    =            2
     number of electrons       =         8.00
     number of Kohn-Sham states=            4
     kinetic-energy cutoff     =      27.0000  Ry
     charge density cutoff     =     108.0000  Ry
     convergence threshold     =      1.0E-08
     mixing beta               =       0.7000
     number of iterations used =            8  plain     mixing
     Exchange-correlation      =  SLA  PZ   NOGX NOGC ( 1  1  0  0 0 0)

     celldm(1)=   9.693000  celldm(2)=   0.000000  celldm(3)=   0.000000
     celldm(4)=   0.000000  celldm(5)=   0.000000  celldm(6)=   0.000000

     crystal axes: (cart. coord. in units of alat)
               a(1) = (  -0.500000   0.000000   0.500000 )  
               a(2) = (   0.000000   0.500000   0.500000 )  
               a(3) = (  -0.500000   0.500000   0.000000 )  

     reciprocal axes: (cart. coord. in units 2 pi/alat)
               b(1) = ( -1.000000 -1.000000  1.000000 )  
               b(2) = (  1.000000  1.000000  1.000000 )  
               b(3) = ( -1.000000  1.000000 -1.000000 )  


     PseudoPot. # 1 for Li read from file:
     /home/schlipf/code/devel/q-e-private/SGW/test-suite/../..//pseudo/Li.pz-n-vbc.UPF
     MD5 check sum: d719116e0b162b18483694e0c0b97f98
     Pseudo is Norm-conserving + core correction, Zval =  1.0
     Generated by new atomic code, or converted to UPF format
     Using radial grid of  149 points,  1 beta functions with: 
                l(1) =   0

     PseudoPot. # 2 for Cl read from file:
     /home/schlipf/code/devel/q-e-private/SGW/test-suite/../..//pseudo/Cl.pz-bhs.UPF
     MD5 check sum: ad694f41b6fc12d0d2d76f7df26d8e59
     Pseudo is Norm-conserving, Zval =  7.0
     Generated by new atomic code, or converted to UPF format
     Using radial grid of  479 points,  2 beta functions with: 
                l(1) =   0
                l(2) =   1

     atomic species   valence    mass     pseudopotential
        Li             1.00     6.94100     Li( 1.00)
        Cl             7.00    35.45000     Cl( 1.00)

     48 Sym. Ops., with inversion, found



   Cartesian axes

     site n.     atom                  positions (alat units)
         1           Li  tau(   1) = (   0.0000000   0.0000000   0.0000000  )
         2           Cl  tau(   2) = (   0.5000000   0.5000000   0.5000000  )

     number of k points=     3
                       cart. coord. in units 2pi/alat
        k(    1) = (   0.0000000   0.0000000   0.0000000), wk =   0.2500000
        k(    2) = (   0.5000000  -0.5000000   0.5000000), wk =   1.0000000
        k(    3) = (   0.0000000  -1.0000000   0.0000000), wk =   0.7500000

     Dense  grid:     4285 G-vectors     FFT dimensions: (  24,  24,  24)

     Estimated max dynamical RAM per process >       3.04MB

     Initial potential from superposition of free atoms

     starting charge    7.99421, renormalised to    8.00000
     Starting wfc are    8 randomized atomic wfcs

     total cpu time spent up to now is        0.1 secs

     per-process dynamical memory:     6.4 Mb

     Self-consistent Calculation

     iteration #  1     ecut=    27.00 Ry     beta=0.70
     Davidson diagonalization with overlap
     ethr =  1.00E-02,  avg # of iterations =  1.0

     Threshold (ethr) on eigenvalues was too large:
     Diagonalizing with lowered threshold

     Davidson diagonalization with overlap
     ethr =  4.97E-04,  avg # of iterations =  1.3

     total cpu time spent up to now is        0.1 secs

     total energy              =     -30.80168446 Ry
     Harris-Foulkes estimate   =     -30.81979588 Ry
     estimated scf accuracy    <       0.03172756 Ry

     iteration #  2     ecut=    27.00 Ry     beta=0.70
     Davidson diagonalization with overlap
     ethr =  3.97E-04,  avg # of iterations =  2.0

     total cpu time spent up to now is        0.1 secs

     total energy              =     -30.80953068 Ry
     Harris-Foulkes estimate   =     -30.81224074 Ry
     estimated scf accuracy    <       0.00513827 Ry

     iteration #  3     ecut=    27.00 Ry     beta=0.70
     Davidson diagonalization with overlap
     ethr =  6.42E-05,  avg # of iterations =  2.0

     total cpu time spent up to now is        0.1 secs

     total energy              =     -30.81053708 Ry
     Harris-Foulkes estimate   =     -30.81051595 Ry
     estimated scf accuracy    <       0.00012564 Ry

     iteration #  4     ecut=    27.00 Ry     beta=0.70
     Davidson diagonalization with overlap
     ethr =  1.57E-06,  avg # of iterations =  1.0

     total cpu time spent up to now is        0.1 secs

     total energy              =     -30.81054003 Ry
     Harris-Foulkes estimate   =     -30.81054052 Ry
     estimated scf accuracy    <       0.00000116 Ry

     iteration #  5     ecut=    27.00 Ry     beta=0.70
     Davidson diagonalization with overlap
     ethr =  1.45E-08,  avg # of iterations =  2.0

     total cpu time spent up to now is        0.1 secs

     total energy              =     -30.81054059 Ry
     Harris-Foulkes estimate   =     -30.81054078 Ry
     estimated scf accuracy    <       0.00000034 Ry

     iteration #  6     ecut=    27.00 Ry     beta=0.70
     Davidson diagonalization with overlap
     ethr =  4.21E-09,  avg # of iterations =  2.0

     total cpu time spent up to now is        0.2 secs

     End of self-consistent calculation

          k = 0.0000 0.0000 0.0000 (   537 PWs)   bands (ev):

   -11.9727   1.4644   1.4644   1.4644

          k = 0.5000-0.5000 0.5000 (   544 PWs)   bands (ev):

   -11.3555  -1.5261   1.2002   1.2002

          k = 0.0000-1.0000 0.0000 (   524 PWs)   bands (ev):

   -11.0822  -1.6181   0.2882   0.2882

     highest occupied level (ev):     1.4644

!    total energy              =     -30.81054065 Ry
     Harris-Foulkes estimate   =     -30.81054065 Ry
     estimated scf accuracy    <          5.8E-11 Ry

     The total energy is the sum of the following terms:

     one-electron contribution =      -5.12916053 Ry
     hartree contribution      =       5.86465203 Ry
     xc contribution           =      -6.32170898 Ry
     ewald contribution        =     -25.22432317 Ry

     convergence has been achieved in   6 iterations

     Writing output data file licl.save

     init_run     :      0.07s CPU      0.05s WALL (       1 calls)
     electrons    :      0.13s CPU      0.10s WALL (       1 calls)

     Called by init_run:
     wfcinit      :      0.01s CPU      0.01s WALL (       1 calls)
     potinit      :      0.00s CPU      0.00s WALL (       1 calls)

     Called by electrons:
     c_bands      :      0.09s CPU      0.07s WALL (       7 calls)
     sum_band     :      0.03s CPU      0.02s WALL (       7 calls)
     v_of_rho     :      0.01s CPU      0.01s WALL (       7 calls)
     mix_rho      :      0.00s CPU      0.00s WALL (       7 calls)

     Called by c_bands:
     init_us_2    :      0.01s CPU      0.00s WALL (      45 calls)
     cegterg      :      0.09s CPU      0.07s WALL (      21 calls)

     Called by sum_band:

     Called by *egterg:
     h_psi        :      0.08s CPU      0.07s WALL (      58 calls)
     g_psi        :      0.00s CPU      0.00s WALL (      34 calls)
     cdiaghg      :      0.00s CPU      0.00s WALL (      52 calls)

     Called by h_psi:
     h_psi:pot    :      0.08s CPU      0.07s WALL (      58 calls)
     h_psi:calbec :      0.00s CPU      0.00s WALL (      58 calls)
     vloc_psi     :      0.08s CPU      0.06s WALL (      58 calls)
     add_vuspsi   :      0.00s CPU      0.00s WALL (      58 calls)

     General routines
     calbec       :      0.00s CPU      0.00s WALL (      58 calls)
     fft          :      0.01s CPU      0.01s WALL (      30 calls)
     fftw         :      0.09s CPU      0.07s WALL (     568 calls)

     Parallel routines
     fft_scatter  :      0.01s CPU      0.01s WALL (     598 calls)

     PWSCF        :     0.26s CPU         0.19s WALL


   This run was terminated on:  12:33: 9  20Feb2017            

=------------------------------------------------------------------------------=
   JOB DONE.
=------------------------------------------------------------------------------=
