
     Program PWSCF v.6.1 starts on 20Feb2017 at 12:24:39 

     This program is part of the open-source Quantum ESPRESSO suite
     for quantum simulation of materials; please cite
         "P. Giannozzi et al., J. Phys.:Condens. Matter 21 395502 (2009);
          URL http://www.quantum-espresso.org", 
     in publications or presentations arising from this work. More details at
     http://www.quantum-espresso.org/quote

     Parallel version (MPI), running on     1 processors
     Waiting for input...
     Reading input from standard input

     Current dimensions of program PWSCF are:
     Max number of different atomic species (ntypx) = 10
     Max number of k-points (npk) =  40000
     Max angular momentum in pseudopotentials (lmaxx) =  3

     Subspace diagonalization in iterative solution of the eigenvalue problem:
     a serial algorithm will be used


     G-vector sticks info
     --------------------
     sticks:   dense  smooth     PW     G-vecs:    dense   smooth      PW
     Sum         163     163     61                 1459     1459     307



     bravais-lattice index     =            2
     lattice parameter (alat)  =       6.7400  a.u.
     unit-cell volume          =      76.5455 (a.u.)^3
     number of atoms/cell      =            2
     number of atomic types    =            1
     number of electrons       =         8.00
     number of Kohn-Sham states=            4
     kinetic-energy cutoff     =      27.0000  Ry
     charge density cutoff     =     108.0000  Ry
     convergence threshold     =      1.0E-08
     mixing beta               =       0.7000
     number of iterations used =            8  plain     mixing
     Exchange-correlation      =  SLA  PZ   NOGX NOGC ( 1  1  0  0 0 0)

     celldm(1)=   6.740000  celldm(2)=   0.000000  celldm(3)=   0.000000
     celldm(4)=   0.000000  celldm(5)=   0.000000  celldm(6)=   0.000000

     crystal axes: (cart. coord. in units of alat)
               a(1) = (  -0.500000   0.000000   0.500000 )  
               a(2) = (   0.000000   0.500000   0.500000 )  
               a(3) = (  -0.500000   0.500000   0.000000 )  

     reciprocal axes: (cart. coord. in units 2 pi/alat)
               b(1) = ( -1.000000 -1.000000  1.000000 )  
               b(2) = (  1.000000  1.000000  1.000000 )  
               b(3) = ( -1.000000  1.000000 -1.000000 )  


     PseudoPot. # 1 for C  read from file:
     /home/schlipf/code/devel/q-e-private/SGW/test-suite/../..//pseudo/C.pz-vbc.UPF
     MD5 check sum: ab53dd623bfeb79c5a7b057bc96eae20
     Pseudo is Norm-conserving, Zval =  4.0
     Generated by new atomic code, or converted to UPF format
     Using radial grid of  269 points,  1 beta functions with: 
                l(1) =   0

     atomic species   valence    mass     pseudopotential
        C              4.00    12.01070     C ( 1.00)

     24 Sym. Ops. (no inversion) found



   Cartesian axes

     site n.     atom                  positions (alat units)
         1           C   tau(   1) = (   0.0000000   0.0000000   0.0000000  )
         2           C   tau(   2) = (   0.2500000   0.2500000   0.2500000  )

     number of k points=     3
                       cart. coord. in units 2pi/alat
        k(    1) = (   0.0000000   0.0000000   0.0000000), wk =   0.2500000
        k(    2) = (   0.5000000  -0.5000000   0.5000000), wk =   1.0000000
        k(    3) = (   0.0000000  -1.0000000   0.0000000), wk =   0.7500000

     Dense  grid:     1459 G-vectors     FFT dimensions: (  15,  15,  15)

     Estimated max dynamical RAM per process >       0.92MB

     Initial potential from superposition of free atoms

     starting charge    7.99994, renormalised to    8.00000
     Starting wfc are    8 randomized atomic wfcs

     total cpu time spent up to now is        0.0 secs

     per-process dynamical memory:     4.2 Mb

     Self-consistent Calculation

     iteration #  1     ecut=    27.00 Ry     beta=0.70
     Davidson diagonalization with overlap
     ethr =  1.00E-02,  avg # of iterations =  2.0

     total cpu time spent up to now is        0.0 secs

     total energy              =     -22.20863492 Ry
     Harris-Foulkes estimate   =     -22.28219830 Ry
     estimated scf accuracy    <       0.15337349 Ry

     iteration #  2     ecut=    27.00 Ry     beta=0.70
     Davidson diagonalization with overlap
     ethr =  1.92E-03,  avg # of iterations =  1.3

     total cpu time spent up to now is        0.0 secs

     total energy              =     -22.21826503 Ry
     Harris-Foulkes estimate   =     -22.21941777 Ry
     estimated scf accuracy    <       0.00396432 Ry

     iteration #  3     ecut=    27.00 Ry     beta=0.70
     Davidson diagonalization with overlap
     ethr =  4.96E-05,  avg # of iterations =  1.3

     total cpu time spent up to now is        0.0 secs

     total energy              =     -22.21869452 Ry
     Harris-Foulkes estimate   =     -22.21870652 Ry
     estimated scf accuracy    <       0.00008447 Ry

     iteration #  4     ecut=    27.00 Ry     beta=0.70
     Davidson diagonalization with overlap
     ethr =  1.06E-06,  avg # of iterations =  2.3

     total cpu time spent up to now is        0.0 secs

     total energy              =     -22.21870443 Ry
     Harris-Foulkes estimate   =     -22.21870509 Ry
     estimated scf accuracy    <       0.00000112 Ry

     iteration #  5     ecut=    27.00 Ry     beta=0.70
     Davidson diagonalization with overlap
     ethr =  1.41E-08,  avg # of iterations =  2.7

     total cpu time spent up to now is        0.0 secs

     total energy              =     -22.21870508 Ry
     Harris-Foulkes estimate   =     -22.21870510 Ry
     estimated scf accuracy    <       0.00000006 Ry

     iteration #  6     ecut=    27.00 Ry     beta=0.70
     Davidson diagonalization with overlap
     ethr =  7.51E-10,  avg # of iterations =  2.7

     total cpu time spent up to now is        0.0 secs

     End of self-consistent calculation

          k = 0.0000 0.0000 0.0000 (   169 PWs)   bands (ev):

    -7.7904  14.3248  14.3248  14.3248

          k = 0.5000-0.5000 0.5000 (   180 PWs)   bands (ev):

    -1.8640   0.2130  11.2914  11.2914

          k = 0.0000-1.0000 0.0000 (   190 PWs)   bands (ev):

     0.9431   0.9432   7.5720   7.5720

     highest occupied level (ev):    14.3248

!    total energy              =     -22.21870509 Ry
     Harris-Foulkes estimate   =     -22.21870509 Ry
     estimated scf accuracy    <          4.7E-09 Ry

     The total energy is the sum of the following terms:

     one-electron contribution =       8.50391172 Ry
     hartree contribution      =       1.94910493 Ry
     xc contribution           =      -7.09641944 Ry
     ewald contribution        =     -25.57530230 Ry

     convergence has been achieved in   6 iterations

     Writing output data file diamond.save

     init_run     :      0.02s CPU      0.02s WALL (       1 calls)
     electrons    :      0.03s CPU      0.03s WALL (       1 calls)

     Called by init_run:
     wfcinit      :      0.00s CPU      0.00s WALL (       1 calls)
     potinit      :      0.00s CPU      0.00s WALL (       1 calls)

     Called by electrons:
     c_bands      :      0.01s CPU      0.02s WALL (       6 calls)
     sum_band     :      0.01s CPU      0.00s WALL (       6 calls)
     v_of_rho     :      0.00s CPU      0.00s WALL (       7 calls)
     mix_rho      :      0.00s CPU      0.00s WALL (       6 calls)

     Called by c_bands:
     init_us_2    :      0.00s CPU      0.00s WALL (      39 calls)
     cegterg      :      0.01s CPU      0.02s WALL (      18 calls)

     Called by sum_band:

     Called by *egterg:
     h_psi        :      0.01s CPU      0.01s WALL (      58 calls)
     g_psi        :      0.00s CPU      0.00s WALL (      37 calls)
     cdiaghg      :      0.00s CPU      0.01s WALL (      55 calls)

     Called by h_psi:
     h_psi:pot    :      0.01s CPU      0.01s WALL (      58 calls)
     h_psi:calbec :      0.00s CPU      0.00s WALL (      58 calls)
     vloc_psi     :      0.01s CPU      0.01s WALL (      58 calls)
     add_vuspsi   :      0.00s CPU      0.00s WALL (      58 calls)

     General routines
     calbec       :      0.00s CPU      0.00s WALL (      58 calls)
     fft          :      0.00s CPU      0.00s WALL (      27 calls)
     fftw         :      0.01s CPU      0.01s WALL (     506 calls)

     Parallel routines
     fft_scatter  :      0.00s CPU      0.00s WALL (     533 calls)

     PWSCF        :     0.09s CPU         0.08s WALL


   This run was terminated on:  12:24:39  20Feb2017            

=------------------------------------------------------------------------------=
   JOB DONE.
=------------------------------------------------------------------------------=
