
     Program PWSCF v.6.1 starts on 21Apr2017 at 17:37:15 

     This program is part of the open-source Quantum ESPRESSO suite
     for quantum simulation of materials; please cite
         "P. Giannozzi et al., J. Phys.:Condens. Matter 21 395502 (2009);
          URL http://www.quantum-espresso.org", 
     in publications or presentations arising from this work. More details at
     http://www.quantum-espresso.org/quote

     Parallel version (MPI), running on     1 processors
     Waiting for input...
     Reading input from standard input

     Current dimensions of program PWSCF are:
     Max number of different atomic species (ntypx) = 10
     Max number of k-points (npk) =  40000
     Max angular momentum in pseudopotentials (lmaxx) =  3

     Subspace diagonalization in iterative solution of the eigenvalue problem:
     a serial algorithm will be used


     G-vector sticks info
     --------------------
     sticks:   dense  smooth     PW     G-vecs:    dense   smooth      PW
     Sum         265     265     95                 2779     2779     603



     bravais-lattice index     =            3
     lattice parameter (alat)  =       6.6329  a.u.
     unit-cell volume          =     145.9084 (a.u.)^3
     number of atoms/cell      =            1
     number of atomic types    =            1
     number of electrons       =         1.00
     number of Kohn-Sham states=            5
     kinetic-energy cutoff     =      27.0000  Ry
     charge density cutoff     =     108.0000  Ry
     convergence threshold     =      1.0E-08
     mixing beta               =       0.7000
     number of iterations used =            8  plain     mixing
     Exchange-correlation      =  SLA  PZ   NOGX NOGC ( 1  1  0  0 0 0)

     celldm(1)=   6.632900  celldm(2)=   0.000000  celldm(3)=   0.000000
     celldm(4)=   0.000000  celldm(5)=   0.000000  celldm(6)=   0.000000

     crystal axes: (cart. coord. in units of alat)
               a(1) = (   0.500000   0.500000   0.500000 )  
               a(2) = (  -0.500000   0.500000   0.500000 )  
               a(3) = (  -0.500000  -0.500000   0.500000 )  

     reciprocal axes: (cart. coord. in units 2 pi/alat)
               b(1) = (  1.000000  0.000000  1.000000 )  
               b(2) = ( -1.000000  1.000000  0.000000 )  
               b(3) = (  0.000000 -1.000000  1.000000 )  


     PseudoPot. # 1 for Li read from file:
     /home/schlipf/code/devel/q-e-private/SGW/test-suite/../..//pseudo/Li.pz-n-vbc.UPF
     MD5 check sum: d719116e0b162b18483694e0c0b97f98
     Pseudo is Norm-conserving + core correction, Zval =  1.0
     Generated by new atomic code, or converted to UPF format
     Using radial grid of  149 points,  1 beta functions with: 
                l(1) =   0

     atomic species   valence    mass     pseudopotential
        Li             1.00     6.94100     Li( 1.00)

     48 Sym. Ops., with inversion, found



   Cartesian axes

     site n.     atom                  positions (alat units)
         1           Li  tau(   1) = (   0.0000000   0.0000000   0.0000000  )

     number of k points=    72  gaussian smearing, width (Ry)=  0.0100
                       cart. coord. in units 2pi/alat
        k(    1) = (   0.0000000   0.0000000   0.0000000), wk =   0.0011574
        k(    2) = (   0.0000000  -0.0833333   0.0833333), wk =   0.0138889
        k(    3) = (   0.0000000  -0.1666667   0.1666667), wk =   0.0138889
        k(    4) = (   0.0000000  -0.2500000   0.2500000), wk =   0.0138889
        k(    5) = (   0.0000000  -0.3333333   0.3333333), wk =   0.0138889
        k(    6) = (   0.0000000  -0.4166667   0.4166667), wk =   0.0138889
        k(    7) = (   0.0000000   0.5000000  -0.5000000), wk =   0.0069444
        k(    8) = (  -0.0833333  -0.0833333   0.1666667), wk =   0.0277778
        k(    9) = (  -0.0833333  -0.1666667   0.2500000), wk =   0.0555556
        k(   10) = (  -0.0833333  -0.2500000   0.3333333), wk =   0.0555556
        k(   11) = (  -0.0833333  -0.3333333   0.4166667), wk =   0.0555556
        k(   12) = (  -0.0833333   0.5833333  -0.5000000), wk =   0.0555556
        k(   13) = (  -0.1666667  -0.1666667   0.3333333), wk =   0.0277778
        k(   14) = (  -0.1666667  -0.2500000   0.4166667), wk =   0.0555556
        k(   15) = (  -0.1666667   0.6666667  -0.5000000), wk =   0.0555556
        k(   16) = (  -0.1666667   0.5833333  -0.4166667), wk =   0.0277778
        k(   17) = (  -0.2500000   0.7500000  -0.5000000), wk =   0.0277778
        k(   18) = (  -0.2500000   0.6666667  -0.4166667), wk =   0.0555556
        k(   19) = (  -0.3333333   0.6666667  -0.3333333), wk =   0.0092593
        k(   20) = (   0.0000000   0.0000000   0.1666667), wk =   0.0069444
        k(   21) = (   0.0000000  -0.0833333   0.2500000), wk =   0.0277778
        k(   22) = (   0.0000000  -0.1666667   0.3333333), wk =   0.0277778
        k(   23) = (   0.0000000  -0.2500000   0.4166667), wk =   0.0277778
        k(   24) = (   0.0000000  -0.3333333   0.5000000), wk =   0.0277778
        k(   25) = (   0.0000000   0.5833333  -0.4166667), wk =   0.0138889
        k(   26) = (  -0.0833333  -0.0833333   0.3333333), wk =   0.0277778
        k(   27) = (  -0.0833333  -0.1666667   0.4166667), wk =   0.0555556
        k(   28) = (  -0.0833333  -0.2500000   0.5000000), wk =   0.0555556
        k(   29) = (  -0.0833333   0.6666667  -0.4166667), wk =   0.0555556
        k(   30) = (  -0.1666667   0.1666667   0.1666667), wk =   0.0092593
        k(   31) = (  -0.1666667  -0.1666667   0.5000000), wk =   0.0277778
        k(   32) = (  -0.1666667   0.7500000  -0.4166667), wk =   0.0555556
        k(   33) = (  -0.1666667   0.6666667  -0.3333333), wk =   0.0277778
        k(   34) = (  -0.2500000   0.2500000   0.1666667), wk =   0.0277778
        k(   35) = (  -0.2500000   0.7500000  -0.3333333), wk =   0.0277778
        k(   36) = (  -0.3333333   0.3333333   0.1666667), wk =   0.0277778
        k(   37) = (  -0.3333333   0.2500000   0.2500000), wk =   0.0277778
        k(   38) = (   0.5833333  -0.5833333   0.1666667), wk =   0.0277778
        k(   39) = (   0.5833333  -0.6666667   0.2500000), wk =   0.0555556
        k(   40) = (   0.5000000  -0.5000000   0.1666667), wk =   0.0138889
        k(   41) = (   0.5000000  -0.5833333   0.2500000), wk =   0.0555556
        k(   42) = (   0.5000000  -0.6666667   0.3333333), wk =   0.0277778
        k(   43) = (   0.4166667  -0.5833333   0.3333333), wk =   0.0277778
        k(   44) = (   0.0000000   0.0000000   0.3333333), wk =   0.0069444
        k(   45) = (   0.0000000  -0.0833333   0.4166667), wk =   0.0277778
        k(   46) = (   0.0000000  -0.1666667   0.5000000), wk =   0.0277778
        k(   47) = (   0.0000000  -0.2500000   0.5833333), wk =   0.0277778
        k(   48) = (   0.0000000   0.6666667  -0.3333333), wk =   0.0138889
        k(   49) = (  -0.0833333  -0.0833333   0.5000000), wk =   0.0277778
        k(   50) = (  -0.0833333  -0.1666667   0.5833333), wk =   0.0555556
        k(   51) = (  -0.0833333   0.7500000  -0.3333333), wk =   0.0555556
        k(   52) = (  -0.1666667   0.8333333  -0.3333333), wk =   0.0277778
        k(   53) = (  -0.1666667   0.7500000  -0.2500000), wk =   0.0277778
        k(   54) = (   0.6666667  -0.6666667   0.3333333), wk =   0.0092593
        k(   55) = (   0.5833333  -0.5833333   0.3333333), wk =   0.0277778
        k(   56) = (   0.5000000  -0.5000000   0.3333333), wk =   0.0138889
        k(   57) = (   0.5000000  -0.5833333   0.4166667), wk =   0.0277778
        k(   58) = (   0.0000000   0.0000000   0.5000000), wk =   0.0069444
        k(   59) = (   0.0000000  -0.0833333   0.5833333), wk =   0.0277778
        k(   60) = (   0.0000000  -0.1666667   0.6666667), wk =   0.0277778
        k(   61) = (   0.0000000   0.7500000  -0.2500000), wk =   0.0138889
        k(   62) = (  -0.0833333  -0.0833333   0.6666667), wk =   0.0277778
        k(   63) = (  -0.0833333   0.8333333  -0.2500000), wk =   0.0555556
        k(   64) = (  -0.1666667   0.8333333  -0.1666667), wk =   0.0092593
        k(   65) = (   0.5000000  -0.5000000   0.5000000), wk =   0.0023148
        k(   66) = (   0.0000000   0.0000000   0.6666667), wk =   0.0069444
        k(   67) = (   0.0000000  -0.0833333   0.7500000), wk =   0.0277778
        k(   68) = (   0.0000000   0.8333333  -0.1666667), wk =   0.0138889
        k(   69) = (  -0.0833333   0.9166667  -0.1666667), wk =   0.0277778
        k(   70) = (   0.0000000   0.0000000   0.8333333), wk =   0.0069444
        k(   71) = (   0.0000000   0.9166667  -0.0833333), wk =   0.0138889
        k(   72) = (   0.0000000   0.0000000  -1.0000000), wk =   0.0011574

     Dense  grid:     2779 G-vectors     FFT dimensions: (  20,  20,  20)

     Estimated max dynamical RAM per process >       3.71MB

     Initial potential from superposition of free atoms

     starting charge    0.99421, renormalised to    1.00000
     Starting wfc are    4 randomized atomic wfcs +    1 random wfc

     total cpu time spent up to now is        0.1 secs

     per-process dynamical memory:     7.0 Mb

     Self-consistent Calculation

     iteration #  1     ecut=    27.00 Ry     beta=0.70
     Davidson diagonalization with overlap
     ethr =  1.00E-02,  avg # of iterations =  5.1

     Threshold (ethr) on eigenvalues was too large:
     Diagonalizing with lowered threshold

     Davidson diagonalization with overlap
     ethr =  1.81E-05,  avg # of iterations =  3.5

     total cpu time spent up to now is        0.5 secs

     total energy              =      -0.58578969 Ry
     Harris-Foulkes estimate   =      -0.58565450 Ry
     estimated scf accuracy    <       0.00017587 Ry

     iteration #  2     ecut=    27.00 Ry     beta=0.70
     Davidson diagonalization with overlap
     ethr =  1.76E-05,  avg # of iterations =  1.0

     total cpu time spent up to now is        0.6 secs

     total energy              =      -0.58580372 Ry
     Harris-Foulkes estimate   =      -0.58579007 Ry
     estimated scf accuracy    <       0.00001600 Ry

     iteration #  3     ecut=    27.00 Ry     beta=0.70
     Davidson diagonalization with overlap
     ethr =  1.60E-06,  avg # of iterations =  1.2

     total cpu time spent up to now is        0.7 secs

     End of self-consistent calculation

          k = 0.0000 0.0000 0.0000 (   369 PWs)   bands (ev):

    -3.2241  14.0259  14.0259  14.0259  18.7338

          k = 0.0000-0.0833 0.0833 (   345 PWs)   bands (ev):

    -3.0966  13.1839  13.4434  13.8199  17.3047

          k = 0.0000-0.1667 0.1667 (   346 PWs)   bands (ev):

    -2.7141  10.9934  12.3662  13.2699  16.3676

          k = 0.0000-0.2500 0.2500 (   346 PWs)   bands (ev):

    -2.0789   8.4804  11.3700  12.5925  14.8378

          k = 0.0000-0.3333 0.3333 (   350 PWs)   bands (ev):

    -1.2070   6.1556  10.6161  12.0025  13.9993

          k = 0.0000-0.4167 0.4167 (   346 PWs)   bands (ev):

    -0.1848   4.2361  10.1531  11.6166  13.4950

          k = 0.0000 0.5000-0.5000 (   340 PWs)   bands (ev):

     0.4615   3.2876   9.9974  11.4836  13.3268

          k =-0.0833-0.0833 0.1667 (   349 PWs)   bands (ev):

    -2.8415  12.1425  12.1854  13.1712  16.5566

          k =-0.0833-0.1667 0.2500 (   347 PWs)   bands (ev):

    -2.3315   9.7651  11.1218  12.3410  16.1559

          k =-0.0833-0.2500 0.3333 (   349 PWs)   bands (ev):

    -1.5724   7.3227  10.2818  11.5812  15.5161

          k =-0.0833-0.3333 0.4167 (   346 PWs)   bands (ev):

    -0.5985   5.1703   9.7012  11.0280  14.9987

          k =-0.0833 0.5833-0.5000 (   341 PWs)   bands (ev):

     0.3819   3.5896   9.4060  10.7410  14.7228

          k =-0.1667-0.1667 0.3333 (   349 PWs)   bands (ev):

    -1.6941   8.3082   9.2996  11.5268  16.2993

          k =-0.1667-0.2500 0.4167 (   342 PWs)   bands (ev):

    -0.8123   6.2348   8.3813  10.9219  16.3347

          k =-0.1667 0.6667-0.5000 (   346 PWs)   bands (ev):

     0.2458   4.3382   7.9105  10.5400  16.2212

          k =-0.1667 0.5833-0.4167 (   346 PWs)   bands (ev):

     0.9609   3.3346   7.7572  10.4097  16.1628

          k =-0.2500 0.7500-0.5000 (   340 PWs)   bands (ev):

     0.1863   4.9265   7.0255  10.5170  17.0028

          k =-0.2500 0.6667-0.4167 (   344 PWs)   bands (ev):

     1.2962   3.5029   6.4815  10.3094  17.2888

          k =-0.3333 0.6667-0.3333 (   351 PWs)   bands (ev):

     2.4551   2.4551   5.9548  10.2337  18.6053

          k = 0.0000 0.0000 0.1667 (   345 PWs)   bands (ev):

    -2.9687  12.7893  12.7893  13.4892  16.2461

          k = 0.0000-0.0833 0.2500 (   348 PWs)   bands (ev):

    -2.5848  10.9566  11.6433  13.0703  15.1319

          k = 0.0000-0.1667 0.3333 (   347 PWs)   bands (ev):

    -1.9470   8.5314  10.6122  12.4943  15.0283

          k = 0.0000-0.2500 0.4167 (   349 PWs)   bands (ev):

    -1.0702   6.2290   9.8403  11.9430  15.1045

          k = 0.0000-0.3333 0.5000 (   351 PWs)   bands (ev):

    -0.0366   4.3086   9.3683  11.5754  14.6116

          k = 0.0000 0.5833-0.4167 (   338 PWs)   bands (ev):

     0.6269   3.3457   9.2099  11.4482  14.4467

          k =-0.0833-0.0833 0.3333 (   347 PWs)   bands (ev):

    -2.0715   9.5889  10.0538  12.6863  14.3160

          k =-0.0833-0.1667 0.4167 (   347 PWs)   bands (ev):

    -1.3061   7.4000   9.0686  12.1998  14.3644

          k =-0.0833-0.2500 0.5000 (   347 PWs)   bands (ev):

    -0.3189   5.2958   8.4610  11.7384  14.7655

          k =-0.0833 0.6667-0.4167 (   346 PWs)   bands (ev):

     0.6966   3.7008   8.1567  11.4820  14.9989

          k =-0.1667 0.1667 0.1667 (   348 PWs)   bands (ev):

    -2.4595  11.0908  11.0908  11.2428  16.9370

          k =-0.1667-0.1667 0.5000 (   341 PWs)   bands (ev):

    -0.4165   6.0385   7.6238  11.9770  14.3658

          k =-0.1667 0.7500-0.4167 (   344 PWs)   bands (ev):

     0.6691   4.3796   6.9597  11.7319  14.8481

          k =-0.1667 0.6667-0.3333 (   346 PWs)   bands (ev):

     1.4553   3.3597   6.7717  11.6304  15.1595

          k =-0.2500 0.2500 0.1667 (   351 PWs)   bands (ev):

    -1.8234   8.5917  10.0865  10.4319  17.0919

          k =-0.2500 0.7500-0.3333 (   345 PWs)   bands (ev):

     1.8296   3.2711   6.1313  11.7101  15.5377

          k =-0.3333 0.3333 0.1667 (   345 PWs)   bands (ev):

    -0.9448   6.2633   9.3284   9.8345  16.9219

          k =-0.3333 0.2500 0.2500 (   349 PWs)   bands (ev):

    -1.0613   7.2214   8.2298   9.7420  17.9558

          k = 0.5833-0.5833 0.1667 (   346 PWs)   bands (ev):

     0.1028   4.3212   8.8629   9.4665  16.6748

          k = 0.5833-0.6667 0.2500 (   345 PWs)   bands (ev):

    -0.0653   5.2909   7.4041   9.3063  18.2920

          k = 0.5000-0.5000 0.1667 (   346 PWs)   bands (ev):

     0.7957   3.3271   8.7064   9.3423  16.5729

          k = 0.5000-0.5833 0.2500 (   340 PWs)   bands (ev):

     1.0035   3.6679   7.0608   9.0877  18.3153

          k = 0.5000-0.6667 0.3333 (   337 PWs)   bands (ev):

     1.0392   4.1160   6.1782   9.0205  19.2897

          k = 0.4167-0.5833 0.3333 (   340 PWs)   bands (ev):

     1.9620   3.0979   5.8344   8.9260  19.5484

          k = 0.0000 0.0000 0.3333 (   349 PWs)   bands (ev):

    -2.1967  10.4397  10.4397  12.6518  13.2006

          k = 0.0000-0.0833 0.4167 (   346 PWs)   bands (ev):

    -1.5513   8.6284   9.3813  12.1933  12.7957

          k = 0.0000-0.1667 0.5000 (   347 PWs)   bands (ev):

    -0.6605   6.4485   8.5958  11.6924  13.4057

          k = 0.0000-0.2500 0.5833 (   345 PWs)   bands (ev):

     0.4051   4.5377   8.1173  11.3780  14.3051

          k = 0.0000 0.6667-0.3333 (   350 PWs)   bands (ev):

     1.1215   3.5325   7.9568  11.2705  14.9141

          k =-0.0833-0.0833 0.5000 (   342 PWs)   bands (ev):

    -0.7745   7.3734   8.0997  12.0856  12.2687

          k =-0.0833-0.1667 0.5833 (   346 PWs)   bands (ev):

     0.2363   5.5365   7.3690  11.7798  12.8993

          k =-0.0833 0.7500-0.3333 (   345 PWs)   bands (ev):

     1.3189   3.9426   7.0460  11.5739  13.8889

          k =-0.1667 0.8333-0.3333 (   344 PWs)   bands (ev):

     1.3509   4.3934   6.3688  12.4038  12.7824

          k =-0.1667 0.7500-0.2500 (   346 PWs)   bands (ev):

     2.2737   3.3940   6.0735  12.3782  13.6149

          k = 0.6667-0.6667 0.3333 (   342 PWs)   bands (ev):

    -0.1740   6.4240   6.4240   8.8541  19.4274

          k = 0.5833-0.5833 0.3333 (   339 PWs)   bands (ev):

     0.9337   4.5499   5.9403   8.4949  20.1662

          k = 0.5000-0.5000 0.3333 (   340 PWs)   bands (ev):

     1.7972   3.4139   5.7783   8.3873  20.3886

          k = 0.5000-0.5833 0.4167 (   343 PWs)   bands (ev):

     2.1399   3.6258   4.9028   8.2162  21.2189

          k = 0.0000 0.0000 0.5000 (   341 PWs)   bands (ev):

    -0.8931   8.3102   8.3102  10.8303  12.1098

          k = 0.0000-0.0833 0.5833 (   343 PWs)   bands (ev):

     0.0188   6.7638   7.5184  10.5441  12.1071

          k = 0.0000-0.1667 0.6667 (   341 PWs)   bands (ev):

     1.1313   4.9447   7.0368  10.6827  12.6930

          k = 0.0000 0.7500-0.2500 (   342 PWs)   bands (ev):

     1.9407   3.8756   6.8754  10.7162  13.6870

          k =-0.0833-0.0833 0.6667 (   342 PWs)   bands (ev):

     1.0574   5.7500   6.6116  10.4398  12.0504

          k =-0.0833 0.8333-0.2500 (   347 PWs)   bands (ev):

     2.2284   4.3259   6.1973  10.8216  12.4876

          k =-0.1667 0.8333-0.1667 (   358 PWs)   bands (ev):

     3.4005   3.4005   5.7327  11.8063  11.8063

          k = 0.5000-0.5000 0.5000 (   336 PWs)   bands (ev):

     3.4618   3.4618   3.4618   8.0005  22.8846

          k = 0.0000 0.0000 0.6667 (   338 PWs)   bands (ev):

     0.9591   6.7234   6.7234   9.1368  11.7823

          k = 0.0000-0.0833 0.7500 (   347 PWs)   bands (ev):

     2.1234   5.4976   6.2401   9.2293  11.5959

          k = 0.0000 0.8333-0.1667 (   352 PWs)   bands (ev):

     3.0688   4.3931   6.0782   9.6219  11.4785

          k =-0.0833 0.9167-0.1667 (   350 PWs)   bands (ev):

     3.3637   4.7663   5.7061   9.4432  10.6717

          k = 0.0000 0.0000 0.8333 (   358 PWs)   bands (ev):

     3.3385   5.7561   5.7561   8.1206  10.2246

          k = 0.0000 0.9167-0.0833 (   364 PWs)   bands (ev):

     4.4372   5.0338   5.5939   8.4041   9.1100

          k = 0.0000 0.0000-1.0000 (   370 PWs)   bands (ev):

     5.4317   5.4317   5.4317   7.7818  12.6394

     the Fermi energy is     0.2108 ev

!    total energy              =      -0.58580376 Ry
     Harris-Foulkes estimate   =      -0.58580376 Ry
     estimated scf accuracy    <          1.2E-09 Ry

     The total energy is the sum of the following terms:

     one-electron contribution =       0.38994467 Ry
     hartree contribution      =       0.00093292 Ry
     xc contribution           =      -0.42754251 Ry
     ewald contribution        =      -0.54866406 Ry
     smearing contrib. (-TS)   =      -0.00047477 Ry

     convergence has been achieved in   3 iterations

     Writing output data file li.save

     init_run     :      0.10s CPU      0.07s WALL (       1 calls)
     electrons    :      0.84s CPU      0.62s WALL (       1 calls)

     Called by init_run:
     wfcinit      :      0.08s CPU      0.05s WALL (       1 calls)
     potinit      :      0.00s CPU      0.00s WALL (       1 calls)

     Called by electrons:
     c_bands      :      0.74s CPU      0.55s WALL (       4 calls)
     sum_band     :      0.09s CPU      0.07s WALL (       4 calls)
     v_of_rho     :      0.00s CPU      0.00s WALL (       4 calls)
     mix_rho      :      0.00s CPU      0.00s WALL (       4 calls)

     Called by c_bands:
     init_us_2    :      0.01s CPU      0.01s WALL (     648 calls)
     cegterg      :      0.73s CPU      0.54s WALL (     288 calls)

     Called by sum_band:

     Called by *egterg:
     h_psi        :      0.57s CPU      0.39s WALL (    1134 calls)
     g_psi        :      0.01s CPU      0.01s WALL (     774 calls)
     cdiaghg      :      0.14s CPU      0.12s WALL (     990 calls)

     Called by h_psi:
     h_psi:pot    :      0.56s CPU      0.38s WALL (    1134 calls)
     h_psi:calbec :      0.01s CPU      0.01s WALL (    1134 calls)
     vloc_psi     :      0.54s CPU      0.36s WALL (    1134 calls)
     add_vuspsi   :      0.01s CPU      0.00s WALL (    1134 calls)

     General routines
     calbec       :      0.01s CPU      0.01s WALL (    1134 calls)
     fft          :      0.00s CPU      0.00s WALL (      18 calls)
     fftw         :      0.46s CPU      0.31s WALL (    9806 calls)

     Parallel routines
     fft_scatter  :      0.07s CPU      0.05s WALL (    9824 calls)

     PWSCF        :     1.06s CPU         0.81s WALL


   This run was terminated on:  17:37:16  21Apr2017            

=------------------------------------------------------------------------------=
   JOB DONE.
=------------------------------------------------------------------------------=
