<PP_INFO>
Generated using Fritz-Haber code                                                
Author: unknown    Generation date: as well                                     
Info: automatically converted from FHI format                                   
    1        The Pseudo was generated with a Scalar-Relativistic Calculation
nl pn  l   occ               Rcut            Rcut US             E pseu
5s  0  0  1.00      2.70000000000      0.00000000000      0.00000000000
5p  0  1  0.00      2.90000000000      0.00000000000      0.00000000000
4d  0  2  5.00      2.40000000000      0.00000000000      0.00000000000
</PP_INFO>


<PP_HEADER>
   0                   Version Number
  Mo                   Element
   NC                  Norm - Conserving pseudopotential
    F                  Nonlinear Core Correction
SLA  PZ   NOGX NOGC    PZ   Exchange-Correlation functional
    6.00000000000      Z valence
    0.00000000000      Total energy
  0.0000000  0.0000000 Suggested cutoff for wfc and rho
    2                  Max angular momentum component
  541                  Number of points in mesh
    3    2             Number of Wavefunctions, Number of Projectors
 Wavefunctions         nl  l   occ
                       5s  0  1.00
                       5p  1  0.00
                       4d  2  5.00
</PP_HEADER>


<PP_MESH>
  <PP_R>
  1.48809523810E-04  1.52485119048E-04  1.56251501488E-04  1.60110913575E-04
  1.64065653140E-04  1.68118074773E-04  1.72270591220E-04  1.76525674823E-04
  1.80885858991E-04  1.85353739708E-04  1.89931977079E-04  1.94623296913E-04
  1.99430492346E-04  2.04356425507E-04  2.09404029217E-04  2.14576308739E-04
  2.19876343565E-04  2.25307289251E-04  2.30872379295E-04  2.36574927064E-04
  2.42418327762E-04  2.48406060458E-04  2.54541690151E-04  2.60828869898E-04
  2.67271342985E-04  2.73872945156E-04  2.80637606902E-04  2.87569355792E-04
  2.94672318880E-04  3.01950725157E-04  3.09408908068E-04  3.17051308097E-04
  3.24882475407E-04  3.32907072550E-04  3.41129877242E-04  3.49555785210E-04
  3.58189813104E-04  3.67037101488E-04  3.76102917895E-04  3.85392659967E-04
  3.94911858668E-04  4.04666181577E-04  4.14661436262E-04  4.24903573738E-04
  4.35398692009E-04  4.46153039702E-04  4.57173019782E-04  4.68465193371E-04
  4.80036283647E-04  4.91893179853E-04  5.04042941396E-04  5.16492802048E-04
  5.29250174259E-04  5.42322653563E-04  5.55718023106E-04  5.69444258277E-04
  5.83509531456E-04  5.97922216883E-04  6.12690895640E-04  6.27824360762E-04
  6.43331622473E-04  6.59221913548E-04  6.75504694813E-04  6.92189660775E-04
  7.09286745396E-04  7.26806128007E-04  7.44758239369E-04  7.63153767881E-04
  7.82003665948E-04  8.01319156497E-04  8.21111739662E-04  8.41393199632E-04
  8.62175611663E-04  8.83471349271E-04  9.05293091598E-04  9.27653830961E-04
  9.50566880585E-04  9.74045882536E-04  9.98104815834E-04  1.02275800479E-03
  1.04802012750E-03  1.07390622465E-03  1.10043170840E-03  1.12761237160E-03
  1.15546439718E-03  1.18400436779E-03  1.21324927567E-03  1.24321653278E-03
  1.27392398114E-03  1.30538990348E-03  1.33763303409E-03  1.37067257003E-03
  1.40452818251E-03  1.43922002862E-03  1.47476876333E-03  1.51119555178E-03
  1.54852208191E-03  1.58677057734E-03  1.62596381060E-03  1.66612511672E-03
  1.70727840710E-03  1.74944818376E-03  1.79265955389E-03  1.83693824488E-03
  1.88231061952E-03  1.92880369183E-03  1.97644514301E-03  2.02526333805E-03
  2.07528734250E-03  2.12654693986E-03  2.17907264927E-03  2.23289574371E-03
  2.28804826858E-03  2.34456306081E-03  2.40247376841E-03  2.46181487049E-03
  2.52262169779E-03  2.58493045373E-03  2.64877823594E-03  2.71420305836E-03
  2.78124387391E-03  2.84994059759E-03  2.92033413035E-03  2.99246638337E-03
  3.06638030304E-03  3.14211989653E-03  3.21973025797E-03  3.29925759534E-03
  3.38074925795E-03  3.46425376462E-03  3.54982083260E-03  3.63750140717E-03
  3.72734769193E-03  3.81941317992E-03  3.91375268546E-03  4.01042237679E-03
  4.10947980950E-03  4.21098396079E-03  4.31499526462E-03  4.42157564766E-03
  4.53078856616E-03  4.64269904374E-03  4.75737371012E-03  4.87488084076E-03
  4.99529039753E-03  5.11867407035E-03  5.24510531989E-03  5.37465942129E-03
  5.50741350899E-03  5.64344662266E-03  5.78283975424E-03  5.92567589617E-03
  6.07204009081E-03  6.22201948105E-03  6.37570336223E-03  6.53318323528E-03
  6.69455286119E-03  6.85990831686E-03  7.02934805229E-03  7.20297294918E-03
  7.38088638103E-03  7.56319427464E-03  7.75000517322E-03  7.94143030100E-03
  8.13758362944E-03  8.33858194508E-03  8.54454491913E-03  8.75559517863E-03
  8.97185837954E-03  9.19346328152E-03  9.42054182457E-03  9.65322920764E-03
  9.89166396906E-03  1.01359880691E-02  1.03863469744E-02  1.06428897447E-02
  1.09057691214E-02  1.11751416187E-02  1.14511676166E-02  1.17340114568E-02
  1.20238415398E-02  1.23208304258E-02  1.26251549373E-02  1.29369962643E-02
  1.32565400720E-02  1.35839766118E-02  1.39195008341E-02  1.42633125047E-02
  1.46156163235E-02  1.49766220467E-02  1.53465446113E-02  1.57256042632E-02
  1.61140266885E-02  1.65120431477E-02  1.69198906134E-02  1.73378119116E-02
  1.77660558658E-02  1.82048774457E-02  1.86545379186E-02  1.91153050052E-02
  1.95874530388E-02  2.00712631289E-02  2.05670233282E-02  2.10750288044E-02
  2.15955820158E-02  2.21289928916E-02  2.26755790161E-02  2.32356658178E-02
  2.38095867635E-02  2.43976835565E-02  2.50003063404E-02  2.56178139070E-02
  2.62505739105E-02  2.68989630861E-02  2.75633674743E-02  2.82441826509E-02
  2.89418139624E-02  2.96566767672E-02  3.03891966834E-02  3.11398098415E-02
  3.19089631446E-02  3.26971145342E-02  3.35047332632E-02  3.43323001748E-02
  3.51803079891E-02  3.60492615965E-02  3.69396783579E-02  3.78520884133E-02
  3.87870349972E-02  3.97450747616E-02  4.07267781082E-02  4.17327295275E-02
  4.27635279468E-02  4.38197870871E-02  4.49021358281E-02  4.60112185831E-02
  4.71476956821E-02  4.83122437654E-02  4.95055561864E-02  5.07283434242E-02
  5.19813335068E-02  5.32652724444E-02  5.45809246738E-02  5.59290735133E-02
  5.73105216290E-02  5.87260915133E-02  6.01766259737E-02  6.16629886352E-02
  6.31860644545E-02  6.47467602465E-02  6.63460052246E-02  6.79847515537E-02
  6.96639749170E-02  7.13846750975E-02  7.31478765724E-02  7.49546291237E-02
  7.68060084631E-02  7.87031168721E-02  8.06470838589E-02  8.26390668302E-02
  8.46802517809E-02  8.67718539999E-02  8.89151187937E-02  9.11113222279E-02
  9.33617718869E-02  9.56678076525E-02  9.80308025015E-02  1.00452163323E-01
  1.02933331757E-01  1.05475785052E-01  1.08081036943E-01  1.10750638555E-01
  1.13486179327E-01  1.16289287957E-01  1.19161633369E-01  1.22104925714E-01
  1.25120917379E-01  1.28211404038E-01  1.31378225718E-01  1.34623267893E-01
  1.37948462610E-01  1.41355789636E-01  1.44847277640E-01  1.48425005398E-01
  1.52091103031E-01  1.55847753276E-01  1.59697192782E-01  1.63641713444E-01
  1.67683663766E-01  1.71825450261E-01  1.76069538882E-01  1.80418456493E-01
  1.84874792368E-01  1.89441199740E-01  1.94120397373E-01  1.98915171188E-01
  2.03828375917E-01  2.08862936802E-01  2.14021851341E-01  2.19308191069E-01
  2.24725103388E-01  2.30275813442E-01  2.35963626034E-01  2.41791927597E-01
  2.47764188209E-01  2.53883963658E-01  2.60154897560E-01  2.66580723530E-01
  2.73165267401E-01  2.79912449506E-01  2.86826287008E-01  2.93910896297E-01
  3.01170495436E-01  3.08609406673E-01  3.16232059018E-01  3.24042990876E-01
  3.32046852750E-01  3.40248410013E-01  3.48652545741E-01  3.57264263621E-01
  3.66088690932E-01  3.75131081598E-01  3.84396819313E-01  3.93891420751E-01
  4.03620538843E-01  4.13589966152E-01  4.23805638316E-01  4.34273637583E-01
  4.45000196431E-01  4.55991701283E-01  4.67254696305E-01  4.78795887303E-01
  4.90622145720E-01  5.02740512719E-01  5.15158203383E-01  5.27882611007E-01
  5.40921311499E-01  5.54282067893E-01  5.67972834970E-01  5.82001763993E-01
  5.96377207564E-01  6.11107724591E-01  6.26202085388E-01  6.41669276897E-01
  6.57518508037E-01  6.73759215185E-01  6.90401067800E-01  7.07453974175E-01
  7.24928087337E-01  7.42833811094E-01  7.61181806228E-01  7.79982996842E-01
  7.99248576864E-01  8.18990016713E-01  8.39219070126E-01  8.59947781158E-01
  8.81188491352E-01  9.02953847089E-01  9.25256807112E-01  9.48110650247E-01
  9.71528983309E-01  9.95525749196E-01  1.02011523520E+00  1.04531208151E+00
  1.07113128992E+00  1.09758823279E+00  1.12469866214E+00  1.15247871909E+00
  1.18094494345E+00  1.21011428355E+00  1.24000410636E+00  1.27063220779E+00
  1.30201682332E+00  1.33417663885E+00  1.36713080183E+00  1.40089893264E+00
  1.43550113627E+00  1.47095801434E+00  1.50729067730E+00  1.54452075702E+00
  1.58267041972E+00  1.62176237909E+00  1.66181990985E+00  1.70286686163E+00
  1.74492767311E+00  1.78802738663E+00  1.83219166308E+00  1.87744679716E+00
  1.92381973305E+00  1.97133808046E+00  2.02003013105E+00  2.06992487528E+00
  2.12105201970E+00  2.17344200459E+00  2.22712602210E+00  2.28213603485E+00
  2.33850479491E+00  2.39626586334E+00  2.45545363017E+00  2.51610333483E+00
  2.57825108720E+00  2.64193388906E+00  2.70718965612E+00  2.77405724062E+00
  2.84257645447E+00  2.91278809289E+00  2.98473395879E+00  3.05845688757E+00
  3.13400077269E+00  3.21141059178E+00  3.29073243339E+00  3.37201352450E+00
  3.45530225855E+00  3.54064822434E+00  3.62810223548E+00  3.71771636070E+00
  3.80954395481E+00  3.90363969049E+00  4.00005959085E+00  4.09886106274E+00
  4.20010293099E+00  4.30384547339E+00  4.41015045658E+00  4.51908117286E+00
  4.63070247782E+00  4.74508082903E+00  4.86228432550E+00  4.98238274834E+00
  5.10544760223E+00  5.23155215800E+00  5.36077149631E+00  5.49318255226E+00
  5.62886416131E+00  5.76789710609E+00  5.91036416461E+00  6.05635015948E+00
  6.20594200842E+00  6.35922877602E+00  6.51630172679E+00  6.67725437944E+00
  6.84218256261E+00  7.01118447191E+00  7.18436072837E+00  7.36181443836E+00
  7.54365125499E+00  7.72997944098E+00  7.92090993318E+00  8.11655640853E+00
  8.31703535182E+00  8.52246612501E+00  8.73297103829E+00  8.94867542294E+00
  9.16970770589E+00  9.39619948622E+00  9.62828561353E+00  9.86610426819E+00
  1.01097970436E+01  1.03595090306E+01  1.06153889036E+01  1.08775890096E+01
  1.11462654581E+01  1.14215782149E+01  1.17036911968E+01  1.19927723694E+01
  1.22889938469E+01  1.25925319949E+01  1.29035675352E+01  1.32222856533E+01
  1.35488761090E+01  1.38835333488E+01  1.42264566226E+01  1.45778501011E+01
  1.49379229986E+01  1.53068896967E+01  1.56849698722E+01  1.60723886281E+01
  1.64693766272E+01  1.68761702299E+01  1.72930116345E+01  1.77201490219E+01
  1.81578367028E+01  1.86063352693E+01  1.90659117505E+01  1.95368397707E+01
  2.00193997130E+01  2.05138788859E+01  2.10205716944E+01  2.15397798153E+01
  2.20718123767E+01  2.26169861424E+01  2.31756257001E+01  2.37480636549E+01
  2.43346408272E+01  2.49357064556E+01  2.55516184051E+01  2.61827433797E+01
  2.68294571412E+01  2.74921447326E+01  2.81712007075E+01  2.88670293649E+01
  2.95800449903E+01  3.03106721015E+01  3.10593457024E+01  3.18265115413E+01
  3.26126263763E+01  3.34181582478E+01  3.42435867566E+01  3.50894033495E+01
  3.59561116122E+01  3.68442275690E+01  3.77542799900E+01  3.86868107057E+01
  3.96423749301E+01  4.06215415909E+01  4.16248936682E+01  4.26530285418E+01
  4.37065583468E+01  4.47861103380E+01  4.58923272633E+01  4.70258677467E+01
  4.81874066801E+01  4.93776356251E+01  5.05972632250E+01  5.18470156267E+01
  5.31276369126E+01  5.44398895444E+01  5.57845548161E+01  5.71624333201E+01
  5.85743454231E+01  6.00211317550E+01  6.15036537094E+01  6.30227939560E+01
  6.45794569667E+01  6.61745695538E+01  6.78090814218E+01  6.94839657329E+01
  7.12002196865E+01  7.29588651128E+01  7.47609490810E+01  7.66075445233E+01
  7.84997508731E+01
  </PP_R>
  <PP_RAB>
  3.63093553922E-06  3.72061964704E-06  3.81251895232E-06  3.90668817044E-06
  4.00318336825E-06  4.10206199744E-06  4.20338292878E-06  4.30720648712E-06
  4.41359448735E-06  4.52261027119E-06  4.63431874489E-06  4.74878641789E-06
  4.86608144241E-06  4.98627365404E-06  5.10943461329E-06  5.23563764824E-06
  5.36495789815E-06  5.49747235824E-06  5.63325992549E-06  5.77240144565E-06
  5.91497976135E-06  6.06107976146E-06  6.21078843157E-06  6.36419490583E-06
  6.52139052000E-06  6.68246886584E-06  6.84752584683E-06  7.01665973525E-06
  7.18997123071E-06  7.36756352011E-06  7.54954233905E-06  7.73601603483E-06
  7.92709563089E-06  8.12289489297E-06  8.32353039683E-06  8.52912159763E-06
  8.73979090109E-06  8.95566373635E-06  9.17686863064E-06  9.40353728581E-06
  9.63580465677E-06  9.87380903179E-06  1.01176921149E-05  1.03675991101E-05
  1.06236788081E-05  1.08860836747E-05  1.11549699415E-05  1.14304976990E-05
  1.17128309922E-05  1.20021379177E-05  1.22985907243E-05  1.26023659151E-05
  1.29136443532E-05  1.32326113688E-05  1.35594568696E-05  1.38943754543E-05
  1.42375665280E-05  1.45892344212E-05  1.49495885114E-05  1.53188433477E-05
  1.56972187783E-05  1.60849400822E-05  1.64822381022E-05  1.68893493833E-05
  1.73065163131E-05  1.77339872660E-05  1.81720167515E-05  1.86208655653E-05
  1.90808009447E-05  1.95520967281E-05  2.00350335172E-05  2.05298988451E-05
  2.10369873466E-05  2.15566009341E-05  2.20890489771E-05  2.26346484869E-05
  2.31937243045E-05  2.37666092948E-05  2.43536445444E-05  2.49551795646E-05
  2.55715724999E-05  2.62031903406E-05  2.68504091420E-05  2.75136142478E-05
  2.81932005198E-05  2.88895725726E-05  2.96031450151E-05  3.03343426970E-05
  3.10836009616E-05  3.18513659054E-05  3.26380946433E-05  3.34442555809E-05
  3.42703286938E-05  3.51168058125E-05  3.59841909161E-05  3.68730004317E-05
  3.77837635424E-05  3.87170225019E-05  3.96733329577E-05  4.06532642817E-05
  4.16573999095E-05  4.26863376873E-05  4.37406902281E-05  4.48210852768E-05
  4.59281660831E-05  4.70625917854E-05  4.82250378025E-05  4.94161962362E-05
  5.06367762832E-05  5.18875046574E-05  5.31691260225E-05  5.44824034352E-05
  5.58281188001E-05  5.72070733344E-05  5.86200880458E-05  6.00680042205E-05
  6.15516839248E-05  6.30720105177E-05  6.46298891775E-05  6.62262474402E-05
  6.78620357519E-05  6.95382280350E-05  7.12558222675E-05  7.30158410775E-05
  7.48193323521E-05  7.66673698612E-05  7.85610538968E-05  8.05015119280E-05
  8.24898992726E-05  8.45273997847E-05  8.66152265594E-05  8.87546226554E-05
  9.09468618350E-05  9.31932493223E-05  9.54951225805E-05  9.78538521083E-05
  1.00270842255E-04  1.02747532059E-04  1.05285396101E-04  1.07885945385E-04
  1.10550728236E-04  1.13281331223E-04  1.16079380104E-04  1.18946540793E-04
  1.21884520350E-04  1.24895068003E-04  1.27979976183E-04  1.31141081594E-04
  1.34380266310E-04  1.37699458888E-04  1.41100635522E-04  1.44585821220E-04
  1.48157091004E-04  1.51816571152E-04  1.55566440459E-04  1.59408931538E-04
  1.63346332147E-04  1.67380986551E-04  1.71515296919E-04  1.75751724753E-04
  1.80092792354E-04  1.84541084326E-04  1.89099249108E-04  1.93770000561E-04
  1.98556119575E-04  2.03460455729E-04  2.08485928985E-04  2.13635531431E-04
  2.18912329058E-04  2.24319463585E-04  2.29860154336E-04  2.35537700148E-04
  2.41355481342E-04  2.47316961731E-04  2.53425690685E-04  2.59685305245E-04
  2.66099532285E-04  2.72672190732E-04  2.79407193844E-04  2.86308551531E-04
  2.93380372754E-04  3.00626867961E-04  3.08052351600E-04  3.15661244684E-04
  3.23458077428E-04  3.31447491941E-04  3.39634244992E-04  3.48023210843E-04
  3.56619384151E-04  3.65427882939E-04  3.74453951648E-04  3.83702964254E-04
  3.93180427471E-04  4.02891984029E-04  4.12843416035E-04  4.23040648411E-04
  4.33489752426E-04  4.44196949311E-04  4.55168613959E-04  4.66411278724E-04
  4.77931637309E-04  4.89736548750E-04  5.01833041504E-04  5.14228317629E-04
  5.26929757075E-04  5.39944922075E-04  5.53281561650E-04  5.66947616223E-04
  5.80951222343E-04  5.95300717535E-04  6.10004645258E-04  6.25071759996E-04
  6.40511032468E-04  6.56331654970E-04  6.72543046848E-04  6.89154860105E-04
  7.06176985150E-04  7.23619556683E-04  7.41492959733E-04  7.59807835838E-04
  7.78575089383E-04  7.97805894091E-04  8.17511699675E-04  8.37704238657E-04
  8.58395533352E-04  8.79597903026E-04  9.01323971231E-04  9.23586673320E-04
  9.46399264151E-04  9.69775325976E-04  9.93728776527E-04  1.01827387731E-03
  1.04342524208E-03  1.06919784556E-03  1.09560703234E-03  1.12266852604E-03
  1.15039843863E-03  1.17881328007E-03  1.20792996809E-03  1.23776583830E-03
  1.26833865450E-03  1.29966661927E-03  1.33176838477E-03  1.36466306387E-03
  1.39837024155E-03  1.43290998651E-03  1.46830286318E-03  1.50456994390E-03
  1.54173282151E-03  1.57981362221E-03  1.61883501867E-03  1.65882024364E-03
  1.69979310365E-03  1.74177799331E-03  1.78479990975E-03  1.82888446752E-03
  1.87405791387E-03  1.92034714434E-03  1.96777971880E-03  2.01638387786E-03
  2.06618855964E-03  2.11722341707E-03  2.16951883547E-03  2.22310595070E-03
  2.27801666769E-03  2.33428367938E-03  2.39194048626E-03  2.45102141627E-03
  2.51156164525E-03  2.57359721789E-03  2.63716506917E-03  2.70230304638E-03
  2.76904993162E-03  2.83744546493E-03  2.90753036792E-03  2.97934636801E-03
  3.05293622330E-03  3.12834374801E-03  3.20561383859E-03  3.28479250040E-03
  3.36592687516E-03  3.44906526898E-03  3.53425718112E-03  3.62155333349E-03
  3.71100570083E-03  3.80266754164E-03  3.89659342992E-03  3.99283928764E-03
  4.09146241804E-03  4.19252153977E-03  4.29607682180E-03  4.40218991930E-03
  4.51092401031E-03  4.62234383336E-03  4.73651572605E-03  4.85350766448E-03
  4.97338930379E-03  5.09623201960E-03  5.22210895048E-03  5.35109504156E-03
  5.48326708908E-03  5.61870378618E-03  5.75748576970E-03  5.89969566821E-03
  6.04541815122E-03  6.19473997955E-03  6.34775005705E-03  6.50453948346E-03
  6.66520160870E-03  6.82983208843E-03  6.99852894102E-03  7.17139260586E-03
  7.34852600323E-03  7.53003459551E-03  7.71602645002E-03  7.90661230333E-03
  8.10190562722E-03  8.30202269622E-03  8.50708265681E-03  8.71720759844E-03
  8.93252262612E-03  9.15315593498E-03  9.37923888658E-03  9.61090608707E-03
  9.84829546742E-03  1.00915483655E-02  1.03408096101E-02  1.05962276075E-02
  1.08579544294E-02  1.11261459038E-02  1.14009617076E-02  1.16825654618E-02
  1.19711248287E-02  1.22668116120E-02  1.25698018588E-02  1.28802759647E-02
  1.31984187810E-02  1.35244197249E-02  1.38584728921E-02  1.42007771725E-02
  1.45515363687E-02  1.49109593170E-02  1.52792600121E-02  1.56566577344E-02
  1.60433771805E-02  1.64396485968E-02  1.68457079172E-02  1.72617969027E-02
  1.76881632862E-02  1.81250609194E-02  1.85727499241E-02  1.90314968472E-02
  1.95015748194E-02  1.99832637174E-02  2.04768503312E-02  2.09826285344E-02
  2.15008994592E-02  2.20319716758E-02  2.25761613762E-02  2.31337925622E-02
  2.37051972385E-02  2.42907156103E-02  2.48906962859E-02  2.55054964841E-02
  2.61354822473E-02  2.67810286588E-02  2.74425200667E-02  2.81203503123E-02
  2.88149229650E-02  2.95266515623E-02  3.02559598559E-02  3.10032820643E-02
  3.17690631313E-02  3.25537589906E-02  3.33578368377E-02  3.41817754076E-02
  3.50260652602E-02  3.58912090721E-02  3.67777219362E-02  3.76861316680E-02
  3.86169791202E-02  3.95708185045E-02  4.05482177215E-02  4.15497586992E-02
  4.25760377391E-02  4.36276658713E-02  4.47052692183E-02  4.58094893680E-02
  4.69409837554E-02  4.81004260541E-02  4.92885065777E-02  5.05059326901E-02
  5.17534292276E-02  5.30317389295E-02  5.43416228811E-02  5.56838609662E-02
  5.70592523321E-02  5.84686158647E-02  5.99127906765E-02  6.13926366063E-02
  6.29090347304E-02  6.44628878883E-02  6.60551212191E-02  6.76866827132E-02
  6.93585437762E-02  7.10716998075E-02  7.28271707928E-02  7.46260019113E-02
  7.64692641586E-02  7.83580549833E-02  8.02934989414E-02  8.22767483652E-02
  8.43089840498E-02  8.63914159559E-02  8.85252839300E-02  9.07118584430E-02
  9.29524413466E-02  9.52483666478E-02  9.76010013040E-02  1.00011746036E-01
  1.02482036163E-01  1.05013342457E-01  1.07607172015E-01  1.10265069164E-01
  1.12988616372E-01  1.15779435197E-01  1.18639187246E-01  1.21569575171E-01
  1.24572343678E-01  1.27649280567E-01  1.30802217797E-01  1.34033032576E-01
  1.37343648481E-01  1.40736036598E-01  1.44212216702E-01  1.47774258455E-01
  1.51424282639E-01  1.55164462420E-01  1.58997024642E-01  1.62924251150E-01
  1.66948480154E-01  1.71072107614E-01  1.75297588672E-01  1.79627439112E-01
  1.84064236858E-01  1.88610623508E-01  1.93269305909E-01  1.98043057765E-01
  2.02934721292E-01  2.07947208908E-01  2.13083504968E-01  2.18346667540E-01
  2.23739830229E-01  2.29266204035E-01  2.34929079275E-01  2.40731827533E-01
  2.46677903673E-01  2.52770847894E-01  2.59014287837E-01  2.65411940746E-01
  2.71967615683E-01  2.78685215790E-01  2.85568740620E-01  2.92622288513E-01
  2.99850059040E-01  3.07256355498E-01  3.14845587479E-01  3.22622273489E-01
  3.30591043645E-01  3.38756642423E-01  3.47123931491E-01  3.55697892598E-01
  3.64483630545E-01  3.73486376220E-01  3.82711489713E-01  3.92164463509E-01
  4.01850925757E-01  4.11776643623E-01  4.21947526721E-01  4.32369630631E-01
  4.43049160507E-01  4.53992474772E-01  4.65206088899E-01  4.76696679295E-01
  4.88471087273E-01  5.00536323129E-01  5.12899570310E-01  5.25568189697E-01
  5.38549723982E-01  5.51851902165E-01  5.65482644148E-01  5.79450065459E-01
  5.93762482075E-01  6.08428415383E-01  6.23456597243E-01  6.38855975195E-01
  6.54635717782E-01  6.70805220011E-01  6.87374108945E-01  7.04352249436E-01
  7.21749749997E-01  7.39576968822E-01  7.57844519952E-01  7.76563279595E-01
  7.95744392601E-01  8.15399279098E-01  8.35539641292E-01  8.56177470432E-01
  8.77325053952E-01  8.98994982784E-01  9.21200158859E-01  9.43953802783E-01
  9.67269461712E-01  9.91161017416E-01  1.01564269455E+00  1.04072906910E+00
  1.06643507711E+00  1.09277602351E+00  1.11976759129E+00  1.14742585080E+00
  1.17576726931E+00  1.20480872087E+00  1.23456749627E+00  1.26506131343E+00
  1.29630832787E+00  1.32832714357E+00  1.36113682401E+00  1.39475690357E+00
  1.42920739909E+00  1.46450882184E+00  1.50068218974E+00  1.53774903983E+00
  1.57573144111E+00  1.61465200771E+00  1.65453391230E+00  1.69540089993E+00
  1.73727730216E+00  1.78018805152E+00  1.82415869640E+00  1.86921541620E+00
  1.91538503698E+00
  </PP_RAB>
</PP_MESH>


<PP_LOCAL>
 -4.22369730566E+00 -4.22369732597E+00 -4.22369734579E+00 -4.22369736512E+00
 -4.22369738398E+00 -4.22369740239E+00 -4.22369742034E+00 -4.22369743785E+00
 -4.22369745494E+00 -4.22369747160E+00 -4.22369748786E+00 -4.22369750372E+00
 -4.22369751919E+00 -4.22369753428E+00 -4.22369754900E+00 -4.22369756335E+00
 -4.22369757735E+00 -4.22369759100E+00 -4.22369760431E+00 -4.22369761729E+00
 -4.22369762995E+00 -4.22369764228E+00 -4.22369765431E+00 -4.22369766604E+00
 -4.22369767747E+00 -4.22369768861E+00 -4.22369769947E+00 -4.22369771005E+00
 -4.22369772035E+00 -4.22369773039E+00 -4.22369774018E+00 -4.22369774970E+00
 -4.22369775898E+00 -4.22369776801E+00 -4.22369777680E+00 -4.22369778536E+00
 -4.22369779368E+00 -4.22369780178E+00 -4.22369780966E+00 -4.22369781732E+00
 -4.22369782476E+00 -4.22369783200E+00 -4.22369783902E+00 -4.22369784585E+00
 -4.22369785247E+00 -4.22369785889E+00 -4.22369786512E+00 -4.22369787116E+00
 -4.22369787701E+00 -4.22369788267E+00 -4.22369788814E+00 -4.22369789344E+00
 -4.22369789855E+00 -4.22369790348E+00 -4.22369790823E+00 -4.22369791281E+00
 -4.22369791721E+00 -4.22369792144E+00 -4.22369792549E+00 -4.22369792937E+00
 -4.22369793308E+00 -4.22369793662E+00 -4.22369793998E+00 -4.22369794317E+00
 -4.22369794618E+00 -4.22369794903E+00 -4.22369795169E+00 -4.22369795419E+00
 -4.22369795650E+00 -4.22369795864E+00 -4.22369796059E+00 -4.22369796236E+00
 -4.22369796395E+00 -4.22369796535E+00 -4.22369796656E+00 -4.22369796757E+00
 -4.22369796839E+00 -4.22369796900E+00 -4.22369796941E+00 -4.22369796960E+00
 -4.22369796959E+00 -4.22369796934E+00 -4.22369796888E+00 -4.22369796817E+00
 -4.22369796723E+00 -4.22369796604E+00 -4.22369796460E+00 -4.22369796289E+00
 -4.22369796091E+00 -4.22369795865E+00 -4.22369795610E+00 -4.22369795325E+00
 -4.22369795008E+00 -4.22369794659E+00 -4.22369794276E+00 -4.22369793859E+00
 -4.22369793404E+00 -4.22369792912E+00 -4.22369792381E+00 -4.22369791808E+00
 -4.22369791192E+00 -4.22369790532E+00 -4.22369789824E+00 -4.22369789068E+00
 -4.22369788261E+00 -4.22369787401E+00 -4.22369786485E+00 -4.22369785511E+00
 -4.22369784475E+00 -4.22369783375E+00 -4.22369782209E+00 -4.22369780972E+00
 -4.22369779662E+00 -4.22369778274E+00 -4.22369776806E+00 -4.22369775253E+00
 -4.22369773610E+00 -4.22369771874E+00 -4.22369770039E+00 -4.22369768101E+00
 -4.22369766055E+00 -4.22369763894E+00 -4.22369761614E+00 -4.22369759207E+00
 -4.22369756668E+00 -4.22369753989E+00 -4.22369751162E+00 -4.22369748182E+00
 -4.22369745038E+00 -4.22369741723E+00 -4.22369738227E+00 -4.22369734540E+00
 -4.22369730652E+00 -4.22369726553E+00 -4.22369722230E+00 -4.22369717671E+00
 -4.22369712864E+00 -4.22369707794E+00 -4.22369702447E+00 -4.22369696806E+00
 -4.22369690856E+00 -4.22369684580E+00 -4.22369677957E+00 -4.22369670968E+00
 -4.22369663592E+00 -4.22369655807E+00 -4.22369647588E+00 -4.22369638909E+00
 -4.22369629743E+00 -4.22369620062E+00 -4.22369609833E+00 -4.22369599023E+00
 -4.22369587597E+00 -4.22369575517E+00 -4.22369562742E+00 -4.22369549228E+00
 -4.22369534929E+00 -4.22369519795E+00 -4.22369503771E+00 -4.22369486801E+00
 -4.22369468822E+00 -4.22369449768E+00 -4.22369429569E+00 -4.22369408146E+00
 -4.22369385417E+00 -4.22369361294E+00 -4.22369335680E+00 -4.22369308473E+00
 -4.22369279561E+00 -4.22369248823E+00 -4.22369216130E+00 -4.22369181341E+00
 -4.22369144306E+00 -4.22369104859E+00 -4.22369062823E+00 -4.22369018006E+00
 -4.22368970200E+00 -4.22368919178E+00 -4.22368864695E+00 -4.22368806487E+00
 -4.22368744263E+00 -4.22368677710E+00 -4.22368606487E+00 -4.22368530224E+00
 -4.22368448517E+00 -4.22368360927E+00 -4.22368266976E+00 -4.22368166143E+00
 -4.22368057861E+00 -4.22367941512E+00 -4.22367816419E+00 -4.22367681847E+00
 -4.22367536991E+00 -4.22367380974E+00 -4.22367212836E+00 -4.22367031529E+00
 -4.22366835909E+00 -4.22366624721E+00 -4.22366396595E+00 -4.22366150033E+00
 -4.22365883393E+00 -4.22365594879E+00 -4.22365282522E+00 -4.22364944169E+00
 -4.22364577457E+00 -4.22364179800E+00 -4.22363748360E+00 -4.22363280029E+00
 -4.22362771397E+00 -4.22362218722E+00 -4.22361617903E+00 -4.22360964438E+00
 -4.22360253386E+00 -4.22359479326E+00 -4.22358636306E+00 -4.22357717792E+00
 -4.22356716611E+00 -4.22355624885E+00 -4.22354433962E+00 -4.22353134341E+00
 -4.22351715585E+00 -4.22350166229E+00 -4.22348473679E+00 -4.22346624100E+00
 -4.22344602292E+00 -4.22342391554E+00 -4.22339973541E+00 -4.22337328094E+00
 -4.22334433068E+00 -4.22331264135E+00 -4.22327794568E+00 -4.22323995009E+00
 -4.22319833211E+00 -4.22315273759E+00 -4.22310277759E+00 -4.22304802511E+00
 -4.22298801133E+00 -4.22292222172E+00 -4.22285009161E+00 -4.22277100153E+00
 -4.22268427202E+00 -4.22258915810E+00 -4.22248484319E+00 -4.22237043260E+00
 -4.22224494644E+00 -4.22210731204E+00 -4.22195635580E+00 -4.22179079435E+00
 -4.22160922525E+00 -4.22141011696E+00 -4.22119179824E+00 -4.22095244698E+00
 -4.22069007833E+00 -4.22040253242E+00 -4.22008746145E+00 -4.21974231644E+00
 -4.21936433365E+00 -4.21895052068E+00 -4.21849764270E+00 -4.21800220867E+00
 -4.21746045799E+00 -4.21686834776E+00 -4.21622154098E+00 -4.21551539601E+00
 -4.21474495767E+00 -4.21390495047E+00 -4.21298977423E+00 -4.21199350281E+00
 -4.21090988608E+00 -4.20973235593E+00 -4.20845403641E+00 -4.20706775855E+00
 -4.20556608005E+00 -4.20394131000E+00 -4.20218553864E+00 -4.20029067208E+00
 -4.19824847153E+00 -4.19605059672E+00 -4.19368865264E+00 -4.19115423883E+00
 -4.18843900016E+00 -4.18553467801E+00 -4.18243316048E+00 -4.17912653065E+00
 -4.17560711141E+00 -4.17186750593E+00 -4.16790063291E+00 -4.16369975568E+00
 -4.15925850480E+00 -4.15457089405E+00 -4.14963132959E+00 -4.14443461293E+00
 -4.13897593809E+00 -4.13325088368E+00 -4.12725540098E+00 -4.12098579883E+00
 -4.11443872655E+00 -4.10761115586E+00 -4.10050036287E+00 -4.09310391117E+00
 -4.08541963676E+00 -4.07744563577E+00 -4.06918025549E+00 -4.06062208941E+00
 -4.05176997654E+00 -4.04262300558E+00 -4.03318052404E+00 -4.02344215258E+00
 -4.01340780475E+00 -4.00307771214E+00 -3.99245245511E+00 -3.98153299904E+00
 -3.97032073626E+00 -3.95881753356E+00 -3.94702578544E+00 -3.93494847298E+00
 -3.92258922852E+00 -3.90995240612E+00 -3.89704315780E+00 -3.88386751578E+00
 -3.87043248057E+00 -3.85674611512E+00 -3.84281764501E+00 -3.82865756477E+00
 -3.81427775030E+00 -3.79969157749E+00 -3.78491404694E+00 -3.76996191485E+00
 -3.75485382999E+00 -3.73961047658E+00 -3.72425472314E+00 -3.70881177703E+00
 -3.69330934451E+00 -3.67777779617E+00 -3.66225033743E+00 -3.64676318390E+00
 -3.63135574118E+00 -3.61607078901E+00 -3.60095466925E+00 -3.58605747749E+00
 -3.57143325791E+00 -3.55714020120E+00 -3.54324084506E+00 -3.52980227711E+00
 -3.51689633982E+00 -3.50459983705E+00 -3.49299474174E+00 -3.48216840398E+00
 -3.47221375848E+00 -3.46322953001E+00 -3.45532043461E+00 -3.44859737357E+00
 -3.44317761598E+00 -3.43918496376E+00 -3.43674989144E+00 -3.43600964976E+00
 -3.43710831937E+00 -3.44019679654E+00 -3.44543268824E+00 -3.45298008812E+00
 -3.46300919883E+00 -3.47569575844E+00 -3.49122022122E+00 -3.50976663402E+00
 -3.53152114115E+00 -3.55667004141E+00 -3.58539731270E+00 -3.61788151242E+00
 -3.65429195602E+00 -3.69478407357E+00 -3.73949384492E+00 -3.78853122006E+00
 -3.84197244407E+00 -3.89985122679E+00 -3.96214872898E+00 -4.02878238060E+00
 -4.09959360585E+00 -4.17433460639E+00 -4.25265445098E+00 -4.33408483825E+00
 -4.41802604238E+00 -4.50373371730E+00 -4.59030742322E+00 -4.67668194508E+00
 -4.76162268727E+00 -4.84372664034E+00 -4.92143060545E+00 -4.99302850742E+00
 -5.05669969710E+00 -5.11055010668E+00 -5.15266793976E+00 -5.18119522108E+00
 -5.19441597535E+00 -5.19086104972E+00 -5.16942867185E+00 -5.12951882279E+00
 -5.07117853679E+00 -4.99525450969E+00 -4.90354897061E+00 -4.79897093532E+00