<PP_INFO>
Generated using Fritz-Haber code                                                
Author: unknown    Generation date: as well                                     
Info: automatically converted from FHI format                                   
    1        The Pseudo was generated with a Scalar-Relativistic Calculation
nl pn  l   occ               Rcut            Rcut US             E pseu
3S  0  0  2.00      0.00000000000      0.00000000000      0.00000000000
3P  0  1  4.00      0.00000000000      0.00000000000      0.00000000000
</PP_INFO>


<PP_HEADER>
   0                   Version Number
  S                    Element
   NC                  Norm - Conserving pseudopotential
    F                  Nonlinear Core Correction
SLA  PZ   NOGX NOGC    PZ   Exchange-Correlation functional
    6.00000000000      Z valence
    0.00000000000      Total energy
    0.00000    0.00000 Suggested cutoff for wfc and rho
    1                  Max angular momentum component
  501                  Number of points in mesh
    2    2             Number of Wavefunctions, Number of Projectors
 Wavefunctions         nl  l   occ
                       3S  0  2.00
                       3P  1  4.00
</PP_HEADER>


<PP_MESH>
  <PP_R>
  3.90625000000E-04  4.00273437500E-04  4.10160191406E-04  4.20291148134E-04
  4.30672339493E-04  4.41309946278E-04  4.52210301951E-04  4.63379896410E-04
  4.74825379851E-04  4.86553566733E-04  4.98571439832E-04  5.10886154395E-04
  5.23505042409E-04  5.36435616957E-04  5.49685576695E-04  5.63262810440E-04
  5.77175401858E-04  5.91431634283E-04  6.06039995650E-04  6.21009183543E-04
  6.36348110376E-04  6.52065908703E-04  6.68171936648E-04  6.84675783483E-04
  7.01587275335E-04  7.18916481036E-04  7.36673718117E-04  7.54869558955E-04
  7.73514837061E-04  7.92620653536E-04  8.12198383679E-04  8.32259683755E-04
  8.52816497944E-04  8.73881065443E-04  8.95465927760E-04  9.17583936176E-04
  9.40248259399E-04  9.63472391406E-04  9.87270159474E-04  1.01165573241E-03
  1.03664362900E-03  1.06224872664E-03  1.08848627019E-03  1.11537188106E-03
  1.14292156652E-03  1.17115172922E-03  1.20007917693E-03  1.22972113260E-03
  1.26009524457E-03  1.29121959711E-03  1.32311272116E-03  1.35579360538E-03
  1.38928170743E-03  1.42359696560E-03  1.45875981065E-03  1.49479117798E-03
  1.53171252007E-03  1.56954581932E-03  1.60831360106E-03  1.64803894700E-03
  1.68874550899E-03  1.73045752306E-03  1.77319982388E-03  1.81699785953E-03
  1.86187770666E-03  1.90786608602E-03  1.95499037834E-03  2.00327864069E-03
  2.05275962311E-03  2.10346278580E-03  2.15541831661E-03  2.20865714903E-03
  2.26321098062E-03  2.31911229184E-03  2.37639436545E-03  2.43509130627E-03
  2.49523806154E-03  2.55687044166E-03  2.62002514157E-03  2.68473976256E-03
  2.75105283470E-03  2.81900383971E-03  2.88863323456E-03  2.95998247545E-03
  3.03309404259E-03  3.10801146544E-03  3.18477934864E-03  3.26344339855E-03
  3.34405045050E-03  3.42664849662E-03  3.51128671449E-03  3.59801549634E-03
  3.68688647910E-03  3.77795257513E-03  3.87126800374E-03  3.96688832343E-03
  4.06487046502E-03  4.16527276550E-03  4.26815500281E-03  4.37357843138E-03
  4.48160581864E-03  4.59230148236E-03  4.70573132897E-03  4.82196289280E-03
  4.94106537625E-03  5.06310969104E-03  5.18816850041E-03  5.31631626237E-03
  5.44762927405E-03  5.58218571712E-03  5.72006570433E-03  5.86135132723E-03
  6.00612670501E-03  6.15447803463E-03  6.30649364208E-03  6.46226403504E-03
  6.62188195671E-03  6.78544244104E-03  6.95304286933E-03  7.12478302820E-03
  7.30076516900E-03  7.48109406868E-03  7.66587709217E-03  7.85522425635E-03
  8.04924829548E-03  8.24806472838E-03  8.45179192717E-03  8.66055118777E-03
  8.87446680211E-03  9.09366613212E-03  9.31827968558E-03  9.54844119382E-03
  9.78428769131E-03  1.00259595973E-02  1.02736007993E-02  1.05273587391E-02
  1.07873844999E-02  1.10538328971E-02  1.13268625696E-02  1.16066360751E-02
  1.18933199862E-02  1.21870849898E-02  1.24881059891E-02  1.27965622070E-02
  1.31126372935E-02  1.34365194347E-02  1.37684014647E-02  1.41084809809E-02
  1.44569604611E-02  1.48140473845E-02  1.51799543549E-02  1.55548992275E-02
  1.59391052384E-02  1.63328011378E-02  1.67362213259E-02  1.71496059926E-02
  1.75732012606E-02  1.80072593318E-02  1.84520386373E-02  1.89078039916E-02
  1.93748267502E-02  1.98533849709E-02  2.03437635797E-02  2.08462545401E-02
  2.13611570273E-02  2.18887776058E-02  2.24294304127E-02  2.29834373439E-02
  2.35511282463E-02  2.41328411140E-02  2.47289222895E-02  2.53397266700E-02
  2.59656179188E-02  2.66069686814E-02  2.72641608078E-02  2.79375855798E-02
  2.86276439436E-02  2.93347467490E-02  3.00593149937E-02  3.08017800740E-02
  3.15625840419E-02  3.23421798677E-02  3.31410317104E-02  3.39596151937E-02
  3.47984176890E-02  3.56579386059E-02  3.65386896895E-02  3.74411953248E-02
  3.83659928493E-02  3.93136328727E-02  4.02846796046E-02  4.12797111909E-02
  4.22993200573E-02  4.33441132627E-02  4.44147128603E-02  4.55117562679E-02
  4.66358966478E-02  4.77878032950E-02  4.89681620363E-02  5.01776756386E-02
  5.14170642269E-02  5.26870657133E-02  5.39884362364E-02  5.53219506115E-02
  5.66884027916E-02  5.80886063405E-02  5.95233949171E-02  6.09936227716E-02
  6.25001652541E-02  6.40439193358E-02  6.56258041434E-02  6.72467615058E-02
  6.89077565150E-02  7.06097781009E-02  7.23538396200E-02  7.41409794586E-02
  7.59722616512E-02  7.78487765140E-02  7.97716412939E-02  8.17420008339E-02
  8.37610282545E-02  8.58299256523E-02  8.79499248160E-02  9.01222879589E-02
  9.23483084715E-02  9.46293116907E-02  9.69666556895E-02  9.93617320850E-02
  1.01815966868E-01  1.04330821249E-01  1.06907792534E-01  1.09548415010E-01
  1.12254260860E-01  1.15026941104E-01  1.17868106549E-01  1.20779448781E-01
  1.23762701165E-01  1.26819639884E-01  1.29952084989E-01  1.33161901489E-01
  1.36451000455E-01  1.39821340167E-01  1.43274927269E-01  1.46813817972E-01
  1.50440119276E-01  1.54155990222E-01  1.57963643181E-01  1.61865345167E-01
  1.65863419193E-01  1.69960245647E-01  1.74158263715E-01  1.78459972828E-01
  1.82867934157E-01  1.87384772131E-01  1.92013176003E-01  1.96755901450E-01
  2.01615772216E-01  2.06595681789E-01  2.11698595130E-01  2.16927550429E-01
  2.22285660925E-01  2.27776116750E-01  2.33402186833E-01  2.39167220848E-01
  2.45074651203E-01  2.51127995088E-01  2.57330856567E-01  2.63686928724E-01
  2.70199995863E-01  2.76873935761E-01  2.83712721974E-01  2.90720426207E-01
  2.97901220734E-01  3.05259380887E-01  3.12799287594E-01  3.20525429998E-01
  3.28442408119E-01  3.36554935600E-01  3.44867842509E-01  3.53386078219E-01
  3.62114714351E-01  3.71058947795E-01  3.80224103806E-01  3.89615639170E-01
  3.99239145457E-01  4.09100352350E-01  4.19205131053E-01  4.29559497790E-01
  4.40169617386E-01  4.51041806935E-01  4.62182539566E-01  4.73598448294E-01
  4.85296329966E-01  4.97283149317E-01  5.09566043105E-01  5.22152324369E-01
  5.35049486781E-01  5.48265209105E-01  5.61807359770E-01  5.75684001556E-01
  5.89903396394E-01  6.04474010285E-01  6.19404518339E-01  6.34703809942E-01
  6.50380994048E-01  6.66445404601E-01  6.82906606095E-01  6.99774399265E-01
  7.17058826927E-01  7.34770179952E-01  7.52919003397E-01  7.71516102781E-01
  7.90572550520E-01  8.10099692517E-01  8.30109154923E-01  8.50612851049E-01
  8.71622988470E-01  8.93152076285E-01  9.15212932569E-01  9.37818692004E-01
  9.60982813696E-01  9.84719089195E-01  1.00904165070E+00  1.03396497947E+00
  1.05950391446E+00  1.08567366115E+00  1.11248980058E+00  1.13996829865E+00
  1.16812551563E+00  1.19697821587E+00  1.22654357780E+00  1.25683920417E+00
  1.28788313251E+00  1.31969384589E+00  1.35229028388E+00  1.38569185389E+00
  1.41991844268E+00  1.45499042822E+00  1.49092869180E+00  1.52775463048E+00
  1.56549016986E+00  1.60415777705E+00  1.64378047414E+00  1.68438185186E+00
  1.72598608360E+00  1.76861793986E+00  1.81230280298E+00  1.85706668221E+00
  1.90293622926E+00  1.94993875412E+00  1.99810224135E+00  2.04745536671E+00
  2.09802751427E+00  2.14984879387E+00  2.20295005908E+00  2.25736292554E+00
  2.31311978980E+00  2.37025384861E+00  2.42879911867E+00  2.48879045690E+00
  2.55026358118E+00  2.61325509164E+00  2.67780249240E+00  2.74394421397E+00
  2.81171963605E+00  2.88116911106E+00  2.95233398810E+00  3.02525663761E+00
  3.09998047656E+00  3.17654999433E+00  3.25501077919E+00  3.33540954544E+00
  3.41779416121E+00  3.50221367699E+00  3.58871835481E+00  3.67735969818E+00
  3.76819048272E+00  3.86126478764E+00  3.95663802790E+00  4.05436698719E+00
  4.15450985177E+00  4.25712624511E+00  4.36227726337E+00  4.47002551177E+00
  4.58043514191E+00  4.69357188992E+00  4.80950311560E+00  4.92829784255E+00
  5.05002679926E+00  5.17476246121E+00  5.30257909400E+00  5.43355279762E+00
  5.56776155172E+00  5.70528526205E+00  5.84620580802E+00  5.99060709148E+00
  6.13857508664E+00  6.29019789128E+00  6.44556577919E+00  6.60477125394E+00
  6.76790910391E+00  6.93507645878E+00  7.10637284731E+00  7.28190025664E+00
  7.46176319298E+00  7.64606874384E+00  7.83492664182E+00  8.02844932987E+00
  8.22675202832E+00  8.42995280342E+00  8.63817263766E+00  8.85153550181E+00
  9.07016842870E+00  9.29420158889E+00  9.52376836814E+00  9.75900544683E+00
  1.00000528814E+01  1.02470541875E+01  1.05001564260E+01  1.07595102897E+01
  1.10252701938E+01  1.12975943676E+01  1.15766449485E+01  1.18625880787E+01
  1.21555940043E+01  1.24558371762E+01  1.27634963544E+01  1.30787547144E+01
  1.34017999558E+01  1.37328244148E+01  1.40720251778E+01  1.44196041997E+01
  1.47757684234E+01  1.51407299035E+01  1.55147059321E+01  1.58979191686E+01
  1.62905977721E+01  1.66929755371E+01  1.71052920328E+01  1.75277927460E+01
  1.79607292269E+01  1.84043592388E+01  1.88589469120E+01  1.93247629007E+01
  1.98020845443E+01  2.02911960326E+01  2.07923885746E+01  2.13059605724E+01
  2.18322177985E+01  2.23714735781E+01  2.29240489755E+01  2.34902729852E+01
  2.40704827280E+01  2.46650236513E+01  2.52742497355E+01  2.58985237040E+01
  2.65382172395E+01  2.71937112053E+01  2.78653958721E+01  2.85536711501E+01
  2.92589468275E+01  2.99816428141E+01  3.07221893917E+01  3.14810274696E+01
  3.22586088481E+01  3.30553964867E+01  3.38718647799E+01  3.47084998400E+01
  3.55657997860E+01  3.64442750407E+01  3.73444486342E+01  3.82668565155E+01
  3.92120478714E+01  4.01805854539E+01  4.11730459146E+01  4.21900201487E+01
  4.32321136463E+01  4.42999468534E+01  4.53941555407E+01  4.65153911825E+01
  4.76643213447E+01  4.88416300819E+01  5.00480183450E+01  5.12842043981E+01
  5.25509242467E+01  5.38489320756E+01  5.51790006979E+01  5.65419220151E+01
  5.79385074889E+01  5.93695886239E+01  6.08360174629E+01  6.23386670942E+01
  6.38784321714E+01  6.54562294461E+01  6.70729983134E+01  6.87297013717E+01
  7.04273249956E+01  7.21668799230E+01  7.39494018571E+01  7.57759520830E+01
  7.76476180994E+01
  </PP_R>
  <PP_RAB>
  9.53120579044E-06  9.76662657347E-06  1.00078622498E-05  1.02550564474E-05
  1.05083563417E-05  1.07679127433E-05  1.10338801881E-05  1.13064170287E-05
  1.15856855293E-05  1.18718519619E-05  1.21650867053E-05  1.24655643470E-05
  1.27734637863E-05  1.30889683419E-05  1.34122658599E-05  1.37435488266E-05
  1.40830144827E-05  1.44308649404E-05  1.47873073044E-05  1.51525537948E-05
  1.55268218736E-05  1.59103343738E-05  1.63033196329E-05  1.67060116278E-05
  1.71186501150E-05  1.75414807728E-05  1.79747553479E-05  1.84187318050E-05
  1.88736744806E-05  1.93398542403E-05  1.98175486400E-05  2.03070420914E-05
  2.08086260311E-05  2.13225990940E-05  2.18492672917E-05  2.23889441938E-05
  2.29419511154E-05  2.35086173079E-05  2.40892801554E-05  2.46842853753E-05
  2.52939872240E-05  2.59187487085E-05  2.65589418016E-05  2.72149476641E-05
  2.78871568714E-05  2.85759696461E-05  2.92817960963E-05  3.00050564599E-05
  3.07461813545E-05  3.15056120339E-05  3.22838006512E-05  3.30812105273E-05
  3.38983164273E-05  3.47356048430E-05  3.55935742827E-05  3.64727355674E-05
  3.73736121360E-05  3.82967403557E-05  3.92426698425E-05  4.02119637876E-05
  4.12051992932E-05  4.22229677157E-05  4.32658750183E-05  4.43345421312E-05
  4.54296053219E-05  4.65517165733E-05  4.77015439727E-05  4.88797721088E-05
  5.00871024799E-05  5.13242539112E-05  5.25919629828E-05  5.38909844684E-05
  5.52220917848E-05  5.65860774519E-05  5.79837535649E-05  5.94159522780E-05
  6.08835262993E-05  6.23873493989E-05  6.39283169290E-05  6.55073463572E-05
  6.71253778122E-05  6.87833746441E-05  7.04823239979E-05  7.22232374006E-05
  7.40071513644E-05  7.58351280031E-05  7.77082556648E-05  7.96276495797E-05
  8.15944525243E-05  8.36098355017E-05  8.56749984385E-05  8.77911709000E-05
  8.99596128212E-05  9.21816152579E-05  9.44585011548E-05  9.67916261333E-05
  9.91823792988E-05  1.01632184067E-04  1.04142499014E-04  1.06714818740E-04
  1.09350674762E-04  1.12051636429E-04  1.14819311849E-04  1.17655348852E-04
  1.20561435968E-04  1.23539303437E-04  1.26590724231E-04  1.29717515120E-04
  1.32921537743E-04  1.36204699726E-04  1.39568955809E-04  1.43016309017E-04
  1.46548811850E-04  1.50168567503E-04  1.53877731120E-04  1.57678511079E-04
  1.61573170302E-04  1.65564027609E-04  1.69653459091E-04  1.73843899530E-04
  1.78137843849E-04  1.82537848592E-04  1.87046533452E-04  1.91666582828E-04
  1.96400747424E-04  2.01251845886E-04  2.06222766479E-04  2.11316468811E-04
  2.16535985591E-04  2.21884424435E-04  2.27364969718E-04  2.32980884470E-04
  2.38735512317E-04  2.44632279471E-04  2.50674696774E-04  2.56866361784E-04
  2.63210960920E-04  2.69712271655E-04  2.76374164765E-04  2.83200606635E-04
  2.90195661618E-04  2.97363494460E-04  3.04708372774E-04  3.12234669581E-04
  3.19946865920E-04  3.27849553508E-04  3.35947437480E-04  3.44245339185E-04
  3.52748199063E-04  3.61461079580E-04  3.70389168246E-04  3.79537780701E-04
  3.88912363885E-04  3.98518499273E-04  4.08361906205E-04  4.18448445288E-04
  4.28784121887E-04  4.39375089697E-04  4.50227654413E-04  4.61348277477E-04
  4.72743579930E-04  4.84420346355E-04  4.96385528910E-04  5.08646251474E-04
  5.21209813885E-04  5.34083696288E-04  5.47275563586E-04  5.60793270007E-04
  5.74644863776E-04  5.88838591911E-04  6.03382905132E-04  6.18286462888E-04
  6.33558138522E-04  6.49207024543E-04  6.65242438049E-04  6.81673926269E-04
  6.98511272248E-04  7.15764500673E-04  7.33443883839E-04  7.51559947770E-04
  7.70123478480E-04  7.89145528398E-04  8.08637422950E-04  8.28610767297E-04
  8.49077453249E-04  8.70049666344E-04  8.91539893103E-04  9.13560928463E-04
  9.36125883396E-04  9.59248192716E-04  9.82941623076E-04  1.00722028117E-03
  1.03209862211E-03  1.05759145808E-03  1.08371396709E-03  1.11048170208E-03
  1.13791060012E-03  1.16601699194E-03  1.19481761164E-03  1.22432960665E-03
  1.25457054794E-03  1.28555844047E-03  1.31731173395E-03  1.34984933378E-03
  1.38319061232E-03  1.41735542045E-03  1.45236409933E-03  1.48823749258E-03
  1.52499695865E-03  1.56266438353E-03  1.60126219380E-03  1.64081336999E-03
  1.68134146023E-03  1.72287059430E-03  1.76542549798E-03  1.80903150778E-03
  1.85371458602E-03  1.89950133629E-03  1.94641901930E-03  1.99449556908E-03
  2.04375960963E-03  2.09424047199E-03  2.14596821165E-03  2.19897362648E-03
  2.25328827505E-03  2.30894449544E-03  2.36597542448E-03  2.42441501747E-03
  2.48429806840E-03  2.54566023069E-03  2.60853803838E-03  2.67296892793E-03
  2.73899126045E-03  2.80664434459E-03  2.87596845990E-03  2.94700488086E-03
  3.01979590141E-03  3.09438486018E-03  3.17081616622E-03  3.24913532553E-03
  3.32938896807E-03  3.41162487558E-03  3.49589201001E-03  3.58224054266E-03
  3.67072188406E-03  3.76138871460E-03  3.85429501585E-03  3.94949610274E-03
  4.04704865648E-03  4.14701075829E-03  4.24944192402E-03  4.35440313954E-03
  4.46195689709E-03  4.57216723245E-03  4.68509976309E-03  4.80082172724E-03
  4.91940202390E-03  5.04091125389E-03  5.16542176186E-03  5.29300767938E-03
  5.42374496906E-03  5.55771146980E-03  5.69498694310E-03  5.83565312060E-03
  5.97979375267E-03  6.12749465837E-03  6.27884377643E-03  6.43393121770E-03
  6.59284931878E-03  6.75569269696E-03  6.92255830657E-03  7.09354549674E-03
  7.26875607051E-03  7.44829434545E-03  7.63226721579E-03  7.82078421602E-03
  8.01395758615E-03  8.21190233853E-03  8.41473632629E-03  8.62258031355E-03
  8.83555804730E-03  9.05379633106E-03  9.27742510044E-03  9.50657750042E-03
  9.74138996468E-03  9.98200229681E-03  1.02285577535E-02  1.04812031301E-02
  1.07400888474E-02  1.10053690419E-02  1.12772016572E-02  1.15557485382E-02
  1.18411755271E-02  1.21336525626E-02  1.24333537809E-02  1.27404576193E-02
  1.30551469225E-02  1.33776090514E-02  1.37080359950E-02  1.40466244841E-02
  1.43935761088E-02  1.47490974387E-02  1.51134001455E-02  1.54867011291E-02
  1.58692226469E-02  1.62611924463E-02  1.66628438998E-02  1.70744161441E-02
  1.74961542228E-02  1.79283092321E-02  1.83711384702E-02  1.88249055904E-02
  1.92898807585E-02  1.97663408132E-02  2.02545694313E-02  2.07548572962E-02
  2.12675022715E-02  2.17928095776E-02  2.23310919741E-02  2.28826699459E-02
  2.34478718936E-02  2.40270343293E-02  2.46205020773E-02  2.52286284786E-02
  2.58517756020E-02  2.64903144594E-02  2.71446252265E-02  2.78150974696E-02
  2.85021303771E-02  2.92061329974E-02  2.99275244824E-02  3.06667343372E-02
  3.14242026753E-02  3.22003804814E-02  3.29957298793E-02  3.38107244073E-02
  3.46458493001E-02  3.55016017779E-02  3.63784913418E-02  3.72770400779E-02
  3.81977829678E-02  3.91412682071E-02  4.01080575319E-02  4.10987265529E-02
  4.21138650987E-02  4.31540775667E-02  4.42199832826E-02  4.53122168697E-02
  4.64314286263E-02  4.75782849134E-02  4.87534685508E-02  4.99576792240E-02
  5.11916339008E-02  5.24560672582E-02  5.37517321194E-02  5.50793999028E-02
  5.64398610804E-02  5.78339256491E-02  5.92624236126E-02  6.07262054758E-02
  6.22261427511E-02  6.37631284770E-02  6.53380777504E-02  6.69519282709E-02
  6.86056408992E-02  7.03002002294E-02  7.20366151750E-02  7.38159195699E-02
  7.56391727832E-02  7.75074603510E-02  7.94218946216E-02  8.13836154188E-02
  8.33937907196E-02  8.54536173504E-02  8.75643216990E-02  8.97271604449E-02
  9.19434213079E-02  9.42144238142E-02  9.65415200824E-02  9.89260956285E-02
  1.01369570191E-01  1.03873398574E-01  1.06439071519E-01  1.09068116586E-01
  1.11762099065E-01  1.14522622912E-01  1.17351331698E-01  1.20249909591E-01
  1.23220082358E-01  1.26263618392E-01  1.29382329766E-01  1.32578073312E-01
  1.35852751722E-01  1.39208314690E-01  1.42646760063E-01  1.46170135036E-01
  1.49780537372E-01  1.53480116645E-01  1.57271075526E-01  1.61155671091E-01
  1.65136216167E-01  1.69215080707E-01  1.73394693200E-01  1.77677542122E-01
  1.82066177413E-01  1.86563211995E-01  1.91171323331E-01  1.95893255017E-01
  2.00731818416E-01  2.05689894331E-01  2.10770434721E-01  2.15976464459E-01
  2.21311083131E-01  2.26777466884E-01  2.32378870316E-01  2.38118628413E-01
  2.44000158535E-01  2.50026962451E-01  2.56202628423E-01  2.62530833345E-01
  2.69015344929E-01  2.75660023949E-01  2.82468826540E-01  2.89445806556E-01
  2.96595117978E-01  3.03921017392E-01  3.11427866521E-01  3.19120134824E-01
  3.27002402154E-01  3.35079361488E-01  3.43355821716E-01  3.51836710513E-01
  3.60527077262E-01  3.69432096071E-01  3.78557068844E-01  3.87907428444E-01
  3.97488741927E-01  4.07306713852E-01  4.17367189684E-01  4.27676159270E-01
  4.38239760404E-01  4.49064282486E-01  4.60156170263E-01  4.71522027669E-01
  4.83168621752E-01  4.95102886709E-01  5.07331928011E-01  5.19863026633E-01
  5.32703643391E-01  5.45861423382E-01  5.59344200540E-01  5.73160002293E-01
  5.87317054350E-01  6.01823785592E-01  6.16688833096E-01  6.31921047274E-01
  6.47529497142E-01  6.63523475721E-01  6.79912505571E-01  6.96706344459E-01
  7.13914991167E-01  7.31548691449E-01  7.49617944128E-01  7.68133507348E-01
  7.87106404979E-01  8.06547933182E-01  8.26469667132E-01  8.46883467910E-01
  8.67801489567E-01  8.89236186360E-01  9.11200320163E-01  9.33706968071E-01
  9.56769530182E-01  9.80401737577E-01  1.00461766050E+00  1.02943171671E+00
  1.05485868011E+00  1.08091368951E+00  1.10761225764E+00  1.13497028041E+00
  1.16300404633E+00  1.19173024628E+00  1.22116598336E+00  1.25132878315E+00
  1.28223660409E+00  1.31390784821E+00  1.34636137206E+00  1.37961649795E+00
  1.41369302545E+00  1.44861124318E+00  1.48439194089E+00  1.52105642183E+00
  1.55862651545E+00  1.59712459038E+00  1.63657356776E+00  1.67699693489E+00
  1.71841875918E+00  1.76086370253E+00  1.80435703598E+00  1.84892465477E+00
  1.89459309374E+00
  </PP_RAB>
</PP_MESH>


<PP_LOCAL>
 -2.05523041744E+01 -2.05523044547E+01 -2.05523047271E+01 -2.05523049917E+01
 -2.05523052488E+01 -2.05523054984E+01 -2.05523057406E+01 -2.05523059756E+01
 -2.05523062034E+01 -2.05523064242E+01 -2.05523066380E+01 -2.05523068449E+01
 -2.05523070451E+01 -2.05523072385E+01 -2.05523074253E+01 -2.05523076054E+01
 -2.05523077791E+01 -2.05523079462E+01 -2.05523081069E+01 -2.05523082612E+01
 -2.05523084091E+01 -2.05523085506E+01 -2.05523086858E+01 -2.05523088146E+01
 -2.05523089370E+01 -2.05523090532E+01 -2.05523091629E+01 -2.05523092662E+01
 -2.05523093631E+01 -2.05523094536E+01 -2.05523095375E+01 -2.05523096148E+01
 -2.05523096854E+01 -2.05523097493E+01 -2.05523098064E+01 -2.05523098566E+01
 -2.05523098997E+01 -2.05523099357E+01 -2.05523099644E+01 -2.05523099856E+01
 -2.05523099993E+01 -2.05523100051E+01 -2.05523100031E+01 -2.05523099928E+01
 -2.05523099743E+01 -2.05523099471E+01 -2.05523099111E+01 -2.05523098660E+01
 -2.05523098115E+01 -2.05523097473E+01 -2.05523096731E+01 -2.05523095887E+01
 -2.05523094935E+01 -2.05523093872E+01 -2.05523092695E+01 -2.05523091399E+01
 -2.05523089980E+01 -2.05523088433E+01 -2.05523086752E+01 -2.05523084933E+01
 -2.05523082969E+01 -2.05523080856E+01 -2.05523078586E+01 -2.05523076154E+01
 -2.05523073551E+01 -2.05523070772E+01 -2.05523067807E+01 -2.05523064650E+01
 -2.05523061290E+01 -2.05523057720E+01 -2.05523053930E+01 -2.05523049910E+01
 -2.05523045649E+01 -2.05523041136E+01 -2.05523036360E+01 -2.05523031308E+01
 -2.05523025967E+01 -2.05523020325E+01 -2.05523014365E+01 -2.05523008074E+01
 -2.05523001436E+01 -2.05522994435E+01 -2.05522987051E+01 -2.05522979269E+01
 -2.05522971067E+01 -2.05522962427E+01 -2.05522953326E+01 -2.05522943742E+01
 -2.05522933652E+01 -2.05522923032E+01 -2.05522911854E+01 -2.05522900093E+01
 -2.05522887719E+01 -2.05522874702E+01 -2.05522861012E+01 -2.05522846613E+01
 -2.05522831473E+01 -2.05522815553E+01 -2.05522798817E+01 -2.05522781223E+01
 -2.05522762728E+01 -2.05522743289E+01 -2.05522722859E+01 -2.05522701388E+01
 -2.05522678825E+01 -2.05522655115E+01 -2.05522630203E+01 -2.05522604027E+01
 -2.05522576525E+01 -2.05522547632E+01 -2.05522517277E+01 -2.05522485389E+01
 -2.05522451890E+01 -2.05522416701E+01 -2.05522379738E+01 -2.05522340911E+01
 -2.05522300128E+01 -2.05522257292E+01 -2.05522212299E+01 -2.05522165043E+01
 -2.05522115410E+01 -2.05522063282E+01 -2.05522008534E+01 -2.05521951035E+01
 -2.05521890648E+01 -2.05521827228E+01 -2.05521760624E+01 -2.05521690676E+01
 -2.05521617218E+01 -2.05521540073E+01 -2.05521459058E+01 -2.05521373979E+01
 -2.05521284632E+01 -2.05521190805E+01 -2.05521092271E+01 -2.05520988797E+01
 -2.05520880135E+01 -2.05520766024E+01 -2.05520646192E+01 -2.05520520353E+01
 -2.05520388205E+01 -2.05520249433E+01 -2.05520103703E+01 -2.05519950669E+01
 -2.05519789963E+01 -2.05519621200E+01 -2.05519443977E+01 -2.05519257870E+01
 -2.05519062432E+01 -2.05518857195E+01 -2.05518641668E+01 -2.05518415334E+01
 -2.05518177650E+01 -2.05517928047E+01 -2.05517665925E+01 -2.05517390655E+01
 -2.05517101576E+01 -2.05516797995E+01 -2.05516479182E+01 -2.05516144370E+01
 -2.05515792755E+01 -2.05515423491E+01 -2.05515035688E+01 -2.05514628414E+01
 -2.05514200686E+01 -2.05513751474E+01 -2.05513279694E+01 -2.05512784208E+01
 -2.05512263819E+01 -2.05511717269E+01 -2.05511143236E+01 -2.05510540332E+01
 -2.05509907096E+01 -2.05509241992E+01 -2.05508543407E+01 -2.05507809645E+01
 -2.05507038922E+01 -2.05506229363E+01 -2.05505378995E+01 -2.05504485745E+01
 -2.05503547433E+01 -2.05502561765E+01 -2.05501526329E+01 -2.05500438587E+01
 -2.05499295870E+01 -2.05498095369E+01 -2.05496834130E+01 -2.05495509043E+01
 -2.05494116836E+01 -2.05492654064E+01 -2.05491117102E+01 -2.05489502133E+01
 -2.05487805138E+01 -2.05486021885E+01 -2.05484147917E+01 -2.05482178540E+01
 -2.05480108807E+01 -2.05477933507E+01 -2.05475647148E+01 -2.05473243941E+01
 -2.05470717783E+01 -2.05468062240E+01 -2.05465270526E+01 -2.05462335483E+01
 -2.05459249557E+01 -2.05456004778E+01 -2.05452592733E+01 -2.05449004540E+01
 -2.05445230817E+01 -2.05441261654E+01 -2.05437086580E+01 -2.05432694527E+01
 -2.05428073794E+01 -2.05423212003E+01 -2.05418096061E+01 -2.05412712112E+01
 -2.05407045485E+01 -2.05401080643E+01 -2.05394801125E+01 -2.05388189485E+01
 -2.05381227222E+01 -2.05373894716E+01 -2.05366171140E+01 -2.05358034387E+01
 -2.05349460973E+01 -2.05340425942E+01 -2.05330902761E+01 -2.05320863207E+01
 -2.05310277240E+01 -2.05299112876E+01 -2.05287336033E+01 -2.05274910383E+01
 -2.05261797177E+01 -2.05247955057E+01 -2.05233339862E+01 -2.05217904403E+01
 -2.05201598226E+01 -2.05184367355E+01 -2.05166154008E+01 -2.05146896290E+01
 -2.05126527859E+01 -2.05104977558E+01 -2.05082169019E+01 -2.05058020230E+01
 -2.05032443057E+01 -2.05005342731E+01 -2.04976617280E+01 -2.04946156917E+01
 -2.04913843364E+01 -2.04879549122E+01 -2.04843136667E+01 -2.04804457576E+01
 -2.04763351579E+01 -2.04719645511E+01 -2.04673152185E+01 -2.04623669153E+01
 -2.04570977359E+01 -2.04514839674E+01 -2.04454999298E+01 -2.04391178025E+01
 -2.04323074354E+01 -2.04250361445E+01 -2.04172684888E+01 -2.04089660296E+01
 -2.04000870697E+01 -2.03905863704E+01 -2.03804148473E+01 -2.03695192409E+01
 -2.03578417624E+01 -2.03453197128E+01 -2.03318850740E+01 -2.03174640710E+01
 -2.03019767036E+01 -2.02853362478E+01 -2.02674487246E+01 -2.02482123377E+01
 -2.02275168787E+01 -2.02052431003E+01 -2.01812620600E+01 -2.01554344336E+01
 -2.01276098028E+01 -2.00976259188E+01 -2.00653079476E+01 -2.00304677017E+01
 -1.99929028647E+01 -1.99523962196E+01 -1.99087148893E+01 -1.98616096031E+01
 -1.98108140042E+01 -1.97560440170E+01 -1.96969972931E+01 -1.96333527628E+01
 -1.95647703186E+01 -1.94908906628E+01 -1.94113353551E+01 -1.93257071014E+01
 -1.92335903278E+01 -1.91345520896E+01 -1.90281433692E+01 -1.89139008213E+01
 -1.87913490267E+01 -1.86600033198E+01 -1.85193732571E+01 -1.83689667926E+01
 -1.82082952280E+01 -1.80368789985E+01 -1.78542543509E+01 -1.76599809598E+01
 -1.74536505132E+01 -1.72348962817E+01 -1.70034036594E+01 -1.67589216376E+01
 -1.65012751336E+01 -1.62303780593E+01 -1.59462469628E+01 -1.56490150271E+01
 -1.53389461504E+01 -1.50164487754E+01 -1.46820890757E+01 -1.43366030482E+01
 -1.39809070126E+01 -1.36161059739E+01 -1.32434992725E+01 -1.28645829290E+01
 -1.24810480804E+01 -1.20947749071E+01 -1.17078214466E+01 -1.13224066747E+01
 -1.09408871822E+01 -1.05657266668E+01 -1.01994572637E+01 -9.84463144130E+00
 -9.50376278887E+00 -9.17925355362E+00 -8.87330635115E+00 -8.58781727231E+00
 -8.32424797890E+00 -8.08347584129E+00 -7.86562446200E+00 -7.66988303257E+00
 -7.49433310084E+00 -7.33581700298E+00 -7.18990747995E+00 -7.05107465793E+00
 -6.91318534065E+00 -6.77052738586E+00 -6.61963266908E+00 -6.46227870750E+00
 -6.30639487622E+00 -6.15429672442E+00 -6.00588634737E+00 -5.86106968058E+00
 -5.71975609991E+00 -5.58185808995E+00 -5.44729096925E+00 -5.31597266198E+00
 -5.18782350794E+00 -5.06276610376E+00 -4.94072516942E+00 -4.82162743527E+00
 -4.70540154568E+00 -4.59197797591E+00 -4.48128895966E+00 -4.37326842516E+00
 -4.26785193807E+00 -4.16497664982E+00 -4.06458125031E+00 -3.96660592419E+00
 -3.87099230989E+00 -3.77768346105E+00 -3.68662380987E+00 -3.59775913205E+00
 -3.51103651310E+00 -3.42640431591E+00 -3.34381214934E+00 -3.26321083773E+00
 -3.18455239131E+00 -3.10778997748E+00 -3.03287789272E+00 -2.95977153533E+00
 -2.88842737881E+00 -2.81880294590E+00 -2.75085678327E+00 -2.68454843683E+00
 -2.61983842765E+00 -2.55668822839E+00 -2.49506024045E+00 -2.43491777149E+00
 -2.37622501365E+00 -2.31894702220E+00 -2.26304969474E+00 -2.20849975089E+00
 -2.15526471249E+00 -2.10331288425E+00 -2.05261333488E+00 -2.00313587868E+00
 -1.95485105756E+00 -1.90773012351E+00 -1.86174502148E+00 -1.81686837267E+00
 -1.77307345825E+00 -1.73033420343E+00 -1.68862516193E+00 -1.64792150086E+00
 -1.60819898590E+00 -1.56943396692E+00 -1.53160336383E+00 -1.49468465291E+00
 -1.45865585333E+00 -1.42349551413E+00 -1.38918270141E+00 -1.35569698586E+00
 -1.32301843062E+00 -1.29112757941E+00 -1.26000544492E+00 -1.22963349753E+00
 -1.19999365427E+00 -1.17106826805E+00 -1.14284011715E+00 -1.11529239500E+00
 -1.08840870011E+00 -1.06217302635E+00 -1.03656975344E+00 -1.01158363760E+00
 -9.87199802475E-01 -9.63403730336E-01 -9.40181253377E-01 -9.17518545308E-01
 -8.95402113114E-01 -8.73818789025E-01 -8.52755722675E-01 -8.32200373451E-01
 -8.12140503026E-01 -7.92564168075E-01 -7.73459713160E-01 -7.54815763794E-01
 -7.36621219668E-01 -7.18865248042E-01 -7.01537277292E-01 -6.84626990624E-01
 -6.68124319922E-01 -6.52019439760E-01 -6.36302761550E-01 -6.20964927832E-01
 -6.05996806706E-01 -5.91389486393E-01 -5.77134269925E-01 -5.63222669977E-01
 -5.49646403803E-01 -5.36397388312E-01 -5.23467735251E-01 -5.10849746512E-01
 -4.98535909546E-01 -4.86518892892E-01 -4.74791541809E-01 -4.63346874021E-01
 -4.52178075555E-01 -4.41278496687E-01 -4.30641647981E-01 -4.20261196430E-01
 -4.10130961676E-01 -4.00244912341E-01 -3.90597162429E-01 -3.81181967824E-01
 -3.71993722869E-01 -3.63026957031E-01 -3.54276331639E-01 -3.45736636712E-01
 -3.37402787852E-01 -3.29269823219E-01 -3.21332900575E-01 -3.13587294403E-01
 -3.06028393094E-01 -2.98651696197E-01 -2.91452811747E-01 -2.84427453642E-01
 -2.77571439097E-01 -2.70880686149E-01 -2.64351211231E-01 -2.57979126799E-01
 -2.51760639016E-01 -2.45692045492E-01 -2.39769733085E-01 -2.33990175744E-01
 -2.28349932413E-01 -2.22845644982E-01 -2.17474036286E-01 -2.12231908155E-01